
# System definition
read_data graphene_single_layer_x-45_y-45_795_C.data ### MODIFY FILE NAME ###
Reading data file ...
  orthogonal box = (-1.4464652 -1.4423034 -1.42) to (47.285152 47.149102 1.42)
  8 by 8 by 1 MPI processor grid
  reading atoms ...
  795 atoms
  reading velocities ...
  795 velocities
  read_data CPU = 0.014 seconds

pair_style reax/c NULL
pair_coeff * * ffield.reax.cho C
Reading potential file ffield.reax.cho with DATE: 2011-02-18
fix qeq_reax all qeq/reax 1 0.0 10.0 1.0e-6 reax/c


# Minimization
timestep 0.25
min_style cg
thermo 100
thermo_style custom step temp press vol lx density pe etotal
dump 2 all custom 1000 graphene_single_layer_ReaxFF_795_C_temp_600K.lammpstrj id type x y z ### MODIFY FILE NAME ###
minimize 1.0e-6 1.0e-6 100 1000

CITE-CITE-CITE-CITE-CITE-CITE-CITE-CITE-CITE-CITE-CITE-CITE-CITE

Your simulation uses code contributions which should be cited:

- pair reaxff command:

@Article{Aktulga12,
 author = {H. M. Aktulga, J. C. Fogarty, S. A. Pandit, A. Y. Grama},
 title = {Parallel reactive molecular dynamics: Numerical methods and algorithmic techniques},
 journal = {Parallel Computing},
 year =    2012,
 volume =  38,
 pages =   {245--259}
}

- fix qeq/reaxff command:

@Article{Aktulga12,
 author = {H. M. Aktulga, J. C. Fogarty, S. A. Pandit, A. Y. Grama},
 title = {Parallel reactive molecular dynamics: Numerical methods and algorithmic techniques},
 journal = {Parallel Computing},
 year =    2012,
 volume =  38,
 pages =   {245--259}
}

CITE-CITE-CITE-CITE-CITE-CITE-CITE-CITE-CITE-CITE-CITE-CITE-CITE

WARNING: Using 'neigh_modify every 1 delay 0 check yes' setting during minimization (src/min.cpp:187)
Neighbor list info ...
  update every 1 steps, delay 0 steps, check yes
  max neighbors/atom: 10000, page size: 100000
  master list distance cutoff = 10.4
  ghost atom cutoff = 10.4
  binsize = 5.2, bins = 10 10 1
  2 neighbor lists, perpetual/occasional/extra = 2 0 0
  (1) pair reax/c, perpetual
      attributes: half, newton off, ghost
      pair build: half/bin/newtoff/ghost
      stencil: full/ghost/bin/3d
      bin: standard
  (2) fix qeq/reax, perpetual, copy from (1)
      attributes: half, newton off
      pair build: copy
      stencil: none
      bin: none
Per MPI rank memory allocation (min/avg/max) = 36.37 | 41.41 | 47.38 Mbytes
   Step          Temp          Press          Volume           Lx          Density         PotEng         TotEng    
         0   923            34054.396      6724.9433      48.731617      2.3577398     -151766.67     -149582.14    
        11   923            35396.792      6724.9433      48.731617      2.3577398     -151904.55     -149720.03    
Loop time of 2.2464 on 64 procs for 11 steps with 795 atoms

99.6% CPU use with 64 MPI tasks x 1 OpenMP threads

Minimization stats:
  Stopping criterion = energy tolerance
  Energy initial, next-to-last, final = 
     -151766.666472543  -151904.508881892  -151904.547898656
  Force two-norm initial, final = 279.94165 356.09863
  Force max component initial, final = 137.99181 55.448555
  Final line search alpha, max atom move = 0.00038853166 0.021543519
  Iterations, force evaluations = 11 32

MPI task timing breakdown:
Section |  min time  |  avg time  |  max time  |%varavg| %total
---------------------------------------------------------------
Pair    | 0.73699    | 1.2216     | 1.8373     |  18.2 | 54.38
Neigh   | 0.009944   | 0.018811   | 0.025391   |   2.1 |  0.84
Comm    | 0.014195   | 0.54947    | 0.94095    |  25.4 | 24.46
Output  | 0          | 0          | 0          |   0.0 |  0.00
Modify  | 0.31265    | 0.31941    | 0.32806    |   0.5 | 14.22
Other   |            | 0.1371     |            |       |  6.10

Nlocal:        12.4219 ave          15 max          10 min
Histogram: 15 0 0 0 22 0 12 0 0 15
Nghost:        2194.12 ave        2559 max        1869 min
Histogram: 2 8 9 4 12 12 5 4 6 2
Neighs:        6807.34 ave        8856 max        4476 min
Histogram: 4 8 3 7 7 13 5 2 0 15

Total # of neighbors = 435670
Ave neighs/atom = 548.01258
Neighbor list builds = 1
Dangerous builds = 0

fix 1 all nvt temp 600.0 600.0 $(100.0*dt)  ### MODIFY INIT TEMP, FINAL TEMP ###
fix 1 all nvt temp 600.0 600.0 25  
run 400000
Per MPI rank memory allocation (min/avg/max) = 35.25 | 40.29 | 46.26 Mbytes
   Step          Temp          Press          Volume           Lx          Density         PotEng         TotEng    
        11   923            35396.792      6724.9433      48.731617      2.3577398     -151904.55     -149720.03    
       100   569.07675      37355.89       6724.9433      48.731617      2.3577398     -151002.67     -149655.8     
       200   534.29362      193877.26      6724.9433      48.731617      2.3577398     -150815.98     -149551.43    
       300   661.06703     -20735.349      6724.9433      48.731617      2.3577398     -151001.53     -149436.94    
       400   718.16461     -27459.815      6724.9433      48.731617      2.3577398     -151215.42     -149515.69    
       500   658.39885      12066.496      6724.9433      48.731617      2.3577398     -151278.88     -149720.61    
       600   601.91778      36824.076      6724.9433      48.731617      2.3577398     -151321.41     -149896.82    
       700   600.39857      2555.0146      6724.9433      48.731617      2.3577398     -151435.03     -150014.03    
       800   602.48342      41918.399      6724.9433      48.731617      2.3577398     -151502.73     -150076.79    
       900   598.50091     -2125.5852      6724.9433      48.731617      2.3577398     -151531.6      -150115.09    
      1000   594.22333      39043.438      6724.9433      48.731617      2.3577398     -151483.09     -150076.7     
      1100   624.95605      6010.1581      6724.9433      48.731617      2.3577398     -151499.18     -150020.06    
      1200   614.3176       30055.773      6724.9433      48.731617      2.3577398     -151467.56     -150013.62    
      1300   614.93587      25952.148      6724.9433      48.731617      2.3577398     -151530.99     -150075.59    
      1400   590.83243     -5184.0455      6724.9433      48.731617      2.3577398     -151532.57     -150134.21    
      1500   589.57048     -13382.95       6724.9433      48.731617      2.3577398     -151526.12     -150130.74    
      1600   603.18212      18557.383      6724.9433      48.731617      2.3577398     -151448.49     -150020.9     
      1700   613.09398      12156.487      6724.9433      48.731617      2.3577398     -151423.27     -149972.23    
      1800   607.50445      43929.192      6724.9433      48.731617      2.3577398     -151469.13     -150031.31    
      1900   604.41532      33671.475      6724.9433      48.731617      2.3577398     -151531.84     -150101.33    
      2000   601.80263     -5211.2271      6724.9433      48.731617      2.3577398     -151556.77     -150132.45    
      2100   604.74282      11345.679      6724.9433      48.731617      2.3577398     -151546.83     -150115.55    
      2200   587.60772      28092.501      6724.9433      48.731617      2.3577398     -151501.98     -150111.25    
      2300   614.92568      77310.042      6724.9433      48.731617      2.3577398     -151633.31     -150177.93    
      2400   590.43383     -33510.68       6724.9433      48.731617      2.3577398     -151651.16     -150253.74    
      2500   566.28727      17020.549      6724.9433      48.731617      2.3577398     -151599.08     -150258.81    
      2600   602.76166      42578.541      6724.9433      48.731617      2.3577398     -151588.79     -150162.19    
      2700   588.47134      7836.1252      6724.9433      48.731617      2.3577398     -151510.44     -150117.66    
      2800   597.16167      4647.3137      6724.9433      48.731617      2.3577398     -151522.04     -150108.7     
      2900   608.63741      12804.815      6724.9433      48.731617      2.3577398     -151600.77     -150160.26    
      3000   577.56338      30957.813      6724.9433      48.731617      2.3577398     -151604.5      -150237.55    
      3100   581.08437      31666.868      6724.9433      48.731617      2.3577398     -151666.45     -150291.16    
      3200   571.31628      17562.7        6724.9433      48.731617      2.3577398     -151716.46     -150364.29    
      3300   575.23344      44004.56       6724.9433      48.731617      2.3577398     -151717.81     -150356.37    
      3400   572.2329       277.30364      6724.9433      48.731617      2.3577398     -151600.18     -150245.84    
      3500   591.57149      43365.942      6724.9433      48.731617      2.3577398     -151571.47     -150171.36    
      3600   600.23769      19050.748      6724.9433      48.731617      2.3577398     -151550.92     -150130.3     
      3700   617.64647      22825.922      6724.9433      48.731617      2.3577398     -151590.22     -150128.39    
      3800   590.71125      28704.553      6724.9433      48.731617      2.3577398     -151607.19     -150209.12    
      3900   580.04841      44735.406      6724.9433      48.731617      2.3577398     -151627.39     -150254.55    
      4000   613.12668      22157.861      6724.9433      48.731617      2.3577398     -151685.57     -150234.45    
      4100   595.53362      13001.845      6724.9433      48.731617      2.3577398     -151522.93     -150113.44    
      4200   609.01267      49685.412      6724.9433      48.731617      2.3577398     -151503.47     -150062.08    
      4300   605.11784      50920.994      6724.9433      48.731617      2.3577398     -151536.09     -150103.92    
      4400   612.21914     -12650.789      6724.9433      48.731617      2.3577398     -151629.04     -150180.07    
      4500   582.05438      28609.477      6724.9433      48.731617      2.3577398     -151601.67     -150224.09    
      4600   603.2158       43435.596      6724.9433      48.731617      2.3577398     -151683.77     -150256.1     
      4700   600.95813      37805.757      6724.9433      48.731617      2.3577398     -151710.59     -150288.26    
      4800   600.32986      17953.851      6724.9433      48.731617      2.3577398     -151706.96     -150286.13    
      4900   614.01118      36767.153      6724.9433      48.731617      2.3577398     -151707.79     -150254.58    
      5000   628.72386     -38218.48       6724.9433      48.731617      2.3577398     -151730.03     -150241.99    
      5100   593.12681      21015.165      6724.9433      48.731617      2.3577398     -151706.35     -150302.55    
      5200   600.28776      57449.465      6724.9433      48.731617      2.3577398     -151786.1      -150365.36    
      5300   580.44309     -12102.658      6724.9433      48.731617      2.3577398     -151746.02     -150372.25    
      5400   591.0657      -19401.074      6724.9433      48.731617      2.3577398     -151653.96     -150255.05    
      5500   641.71432     -20797.735      6724.9433      48.731617      2.3577398     -151728.38     -150209.59    
      5600   639.7228       44160.24       6724.9433      48.731617      2.3577398     -151747.56     -150233.49    
      5700   584.82866     -11258.046      6724.9433      48.731617      2.3577398     -151692.57     -150308.41    
      5800   579.84132      9209.879       6724.9433      48.731617      2.3577398     -151702.44     -150330.09    
      5900   632.85929      20450.239      6724.9433      48.731617      2.3577398     -151761.92     -150264.1     
      6000   605.81104     -15379.133      6724.9433      48.731617      2.3577398     -151606.4      -150172.59    
      6100   626.78904     -37544.45       6724.9433      48.731617      2.3577398     -151680.34     -150196.88    
      6200   590.70362      44921.685      6724.9433      48.731617      2.3577398     -151670.3      -150272.24    
      6300   570.16168      38411.187      6724.9433      48.731617      2.3577398     -151643.72     -150294.28    
      6400   600.90218      8329.2141      6724.9433      48.731617      2.3577398     -151709.94     -150287.75    
      6500   613.82271      77138.641      6724.9433      48.731617      2.3577398     -151697.52     -150244.75    
      6600   628.2655       37988.223      6724.9433      48.731617      2.3577398     -151657.58     -150170.62    
      6700   634.13878      56562.727      6724.9433      48.731617      2.3577398     -151660.11     -150159.26    
      6800   596.33338      28062.231      6724.9433      48.731617      2.3577398     -151709.03     -150297.65    
      6900   587.08317      82705.84       6724.9433      48.731617      2.3577398     -151729.95     -150340.46    
      7000   606.41924     -25977.621      6724.9433      48.731617      2.3577398     -151755.26     -150320.01    
      7100   608.85943      21473.342      6724.9433      48.731617      2.3577398     -151711.9      -150270.87    
      7200   615.87962      40346.776      6724.9433      48.731617      2.3577398     -151678.05     -150220.41    
      7300   607.12991      3490.8073      6724.9433      48.731617      2.3577398     -151627.66     -150190.73    
      7400   600.79327     -11792.301      6724.9433      48.731617      2.3577398     -151641.81     -150219.87    
      7500   589.64869      4513.6674      6724.9433      48.731617      2.3577398     -151699.82     -150304.26    
      7600   582.25909      55334.83       6724.9433      48.731617      2.3577398     -151713.59     -150335.52    
      7700   574.57349      23452.119      6724.9433      48.731617      2.3577398     -151673.11     -150313.24    
      7800   602.15486      16063.623      6724.9433      48.731617      2.3577398     -151634.5      -150209.35    
      7900   600.10531     -36246.829      6724.9433      48.731617      2.3577398     -151615.09     -150194.79    
      8000   599.11453      24928.226      6724.9433      48.731617      2.3577398     -151664.65     -150246.68    
      8100   614.01148      45433.357      6724.9433      48.731617      2.3577398     -151735.07     -150281.85    
      8200   602.14255      47304.054      6724.9433      48.731617      2.3577398     -151705.83     -150280.7     
      8300   582.01444     -54946.761      6724.9433      48.731617      2.3577398     -151596.68     -150219.19    
      8400   599.99987      5769.32        6724.9433      48.731617      2.3577398     -151547.27     -150127.21    
      8500   639.49472      84766.161      6724.9433      48.731617      2.3577398     -151673.03     -150159.5     
      8600   639.40313      27927.865      6724.9433      48.731617      2.3577398     -151759.89     -150246.58    
      8700   599.85517      28223.044      6724.9433      48.731617      2.3577398     -151694.93     -150275.22    
      8800   603.60542     -37770.39       6724.9433      48.731617      2.3577398     -151700.68     -150272.09    
      8900   582.56838     -12383.246      6724.9433      48.731617      2.3577398     -151639.2      -150260.4     
      9000   603.18196      75354.491      6724.9433      48.731617      2.3577398     -151695.56     -150267.97    
      9100   602.96006      26872.679      6724.9433      48.731617      2.3577398     -151735.37     -150308.3     
      9200   583.92921      45941.869      6724.9433      48.731617      2.3577398     -151688.96     -150306.94    
      9300   596.63068      23889.206      6724.9433      48.731617      2.3577398     -151647.38     -150235.29    
      9400   605.23635     -8654.9042      6724.9433      48.731617      2.3577398     -151625.11     -150192.66    
      9500   626.52376      20807.491      6724.9433      48.731617      2.3577398     -151705.92     -150223.08    
      9600   590.53132     -319.57408      6724.9433      48.731617      2.3577398     -151735.72     -150338.07    
      9700   574.3294      -56821.607      6724.9433      48.731617      2.3577398     -151698.79     -150339.49    
      9800   603.18527      49312.662      6724.9433      48.731617      2.3577398     -151703.67     -150276.07    
      9900   610.60382      57335.982      6724.9433      48.731617      2.3577398     -151665.04     -150219.88    
     10000   592.1166      -11507.21       6724.9433      48.731617      2.3577398     -151622.79     -150221.39    
     10100   592.03325     -7012.7341      6724.9433      48.731617      2.3577398     -151642.56     -150241.35    
     10200   610.78121      10109.947      6724.9433      48.731617      2.3577398     -151704.54     -150258.97    
     10300   579.11747      72251.577      6724.9433      48.731617      2.3577398     -151654.71     -150284.08    
     10400   592.94284      51771.435      6724.9433      48.731617      2.3577398     -151671.02     -150267.66    
     10500   608.35699      12249.548      6724.9433      48.731617      2.3577398     -151650.63     -150210.8     
     10600   641.64603     -9794.5229      6724.9433      48.731617      2.3577398     -151612.54     -150093.91    
     10700   601.9565       12053.117      6724.9433      48.731617      2.3577398     -151570.82     -150146.14    
     10800   591.10901      58052.267      6724.9433      48.731617      2.3577398     -151632.25     -150233.23    
     10900   584.99        -3462.9872      6724.9433      48.731617      2.3577398     -151657.56     -150273.03    
     11000   626.43261      25352.394      6724.9433      48.731617      2.3577398     -151777.24     -150294.62    
     11100   612.73019     -25181.579      6724.9433      48.731617      2.3577398     -151777.6      -150327.41    
     11200   602.72395      39453.652      6724.9433      48.731617      2.3577398     -151778.15     -150351.64    
     11300   598.31694      3148.2536      6724.9433      48.731617      2.3577398     -151737.71     -150321.64    
     11400   603.82842      33574.131      6724.9433      48.731617      2.3577398     -151685.73     -150256.61    
     11500   611.45178      15363.588      6724.9433      48.731617      2.3577398     -151679.96     -150232.8     
     11600   589.85841      47927.555      6724.9433      48.731617      2.3577398     -151662.23     -150266.18    
     11700   584.64899      36823.418      6724.9433      48.731617      2.3577398     -151730.82     -150347.09    
     11800   581.92348     -45360.663      6724.9433      48.731617      2.3577398     -151761.7      -150384.42    
     11900   584.68523     -8770.1162      6724.9433      48.731617      2.3577398     -151690.81     -150307       
     12000   593.97874      79829.218      6724.9433      48.731617      2.3577398     -151647.75     -150241.94    
     12100   605.96635      63273.292      6724.9433      48.731617      2.3577398     -151685.54     -150251.36    
     12200   598.26207     -12243.501      6724.9433      48.731617      2.3577398     -151720.45     -150304.51    
     12300   597.36839      41481.593      6724.9433      48.731617      2.3577398     -151753.51     -150339.68    
     12400   600.48198      71675.652      6724.9433      48.731617      2.3577398     -151717.09     -150295.89    
     12500   632.96914     -41356.093      6724.9433      48.731617      2.3577398     -151701.93     -150203.84    
     12600   637.56087      23306.359      6724.9433      48.731617      2.3577398     -151718.78     -150209.83    
     12700   595.71503      12915.486      6724.9433      48.731617      2.3577398     -151693.7      -150283.79    
     12800   568.71833      68982.388      6724.9433      48.731617      2.3577398     -151682.64     -150336.62    
     12900   606.04718      11873.69       6724.9433      48.731617      2.3577398     -151748.68     -150314.31    
     13000   607.45374     -66496.934      6724.9433      48.731617      2.3577398     -151724.55     -150286.85    
     13100   609.96482      1881.4787      6724.9433      48.731617      2.3577398     -151671.42     -150227.78    
     13200   599.35307      58647.127      6724.9433      48.731617      2.3577398     -151559.75     -150141.22    
     13300   640.05904     -13379.46       6724.9433      48.731617      2.3577398     -151601.43     -150086.56    
     13400   612.23836     -12159.203      6724.9433      48.731617      2.3577398     -151636.52     -150187.5     
     13500   574.08249      67421.617      6724.9433      48.731617      2.3577398     -151596.68     -150237.96    
     13600   606.25864      98180.867      6724.9433      48.731617      2.3577398     -151696.32     -150261.45    
     13700   601.6504       44663.033      6724.9433      48.731617      2.3577398     -151727.67     -150303.71    
     13800   583.00152     -8761.1952      6724.9433      48.731617      2.3577398     -151709.42     -150329.59    
     13900   571.25935      49854.317      6724.9433      48.731617      2.3577398     -151708.94     -150356.91    
     14000   593.36343      18402.565      6724.9433      48.731617      2.3577398     -151730.05     -150325.7     
     14100   610.4461       2336.0025      6724.9433      48.731617      2.3577398     -151670.03     -150225.25    
     14200   623.12086     -7213.3161      6724.9433      48.731617      2.3577398     -151673.27     -150198.49    
     14300   579.7868       14267.958      6724.9433      48.731617      2.3577398     -151644.54     -150272.32    
     14400   606.42651      57859.503      6724.9433      48.731617      2.3577398     -151753.26     -150317.99    
     14500   603.44892      46656.162      6724.9433      48.731617      2.3577398     -151738.11     -150309.89    
     14600   595.7309       37587.264      6724.9433      48.731617      2.3577398     -151668.57     -150258.62    
     14700   603.08119      4982.4954      6724.9433      48.731617      2.3577398     -151653.98     -150226.63    
     14800   588.56663      20173.312      6724.9433      48.731617      2.3577398     -151648.5      -150255.51    
     14900   595.70539      44090.015      6724.9433      48.731617      2.3577398     -151773.11     -150363.22    
     15000   583.85822      49366.946      6724.9433      48.731617      2.3577398     -151809.74     -150427.89    
     15100   582.01593     -11247.446      6724.9433      48.731617      2.3577398     -151741.81     -150364.32    
     15200   590.1524      -35545.475      6724.9433      48.731617      2.3577398     -151684.07     -150287.32    
     15300   593.25731      16637.888      6724.9433      48.731617      2.3577398     -151661.45     -150257.35    
     15400   600.55531     -19655.615      6724.9433      48.731617      2.3577398     -151656.32     -150234.95    
     15500   604.55876      2528.9934      6724.9433      48.731617      2.3577398     -151659.98     -150229.13    
     15600   605.93532      25091.237      6724.9433      48.731617      2.3577398     -151738.24     -150304.13    
     15700   587.95714      32294.105      6724.9433      48.731617      2.3577398     -151745.57     -150354.02    
     15800   576.21939      2917.5351      6724.9433      48.731617      2.3577398     -151698.62     -150334.85    
     15900   618.8801       10352.374      6724.9433      48.731617      2.3577398     -151689.19     -150224.45    
     16000   629.2252      -311.00673      6724.9433      48.731617      2.3577398     -151699.29     -150210.06    
     16100   605.39828      20998.386      6724.9433      48.731617      2.3577398     -151677.12     -150244.28    
     16200   586.12184      53099.12       6724.9433      48.731617      2.3577398     -151687.38     -150300.17    
     16300   556.68068      23577.319      6724.9433      48.731617      2.3577398     -151685.98     -150368.45    
     16400   595.0323      -2243.7059      6724.9433      48.731617      2.3577398     -151735.39     -150327.09    
     16500   578.8595      -1163.7463      6724.9433      48.731617      2.3577398     -151582.11     -150212.08    
     16600   618.0741       4231.378       6724.9433      48.731617      2.3577398     -151661.69     -150198.86    
     16700   596.07477      51221.006      6724.9433      48.731617      2.3577398     -151672.12     -150261.36    
     16800   580.64542      40269.647      6724.9433      48.731617      2.3577398     -151683.26     -150309.01    
     16900   604.94485      12745.134      6724.9433      48.731617      2.3577398     -151720.77     -150289.01    
     17000   616.6971       10244.271      6724.9433      48.731617      2.3577398     -151673        -150213.43    
     17100   638.64757      3442.7164      6724.9433      48.731617      2.3577398     -151610.25     -150098.72    
     17200   598.71563      46289.525      6724.9433      48.731617      2.3577398     -151571.46     -150154.44    
     17300   597.31237     -26100.124      6724.9433      48.731617      2.3577398     -151652.58     -150238.88    
     17400   589.64651      4100.4322      6724.9433      48.731617      2.3577398     -151692.46     -150296.91    
     17500   581.46796      20370.809      6724.9433      48.731617      2.3577398     -151687.14     -150310.94    
     17600   604.56292     -22799.677      6724.9433      48.731617      2.3577398     -151697.81     -150266.95    
     17700   634.62259      69246.459      6724.9433      48.731617      2.3577398     -151663.22     -150161.22    
     17800   611.53277     -48246.009      6724.9433      48.731617      2.3577398     -151620.03     -150172.68    
     17900   620.22957      107473.83      6724.9433      48.731617      2.3577398     -151678.51     -150210.57    
     18000   589.70002     -747.23355      6724.9433      48.731617      2.3577398     -151648.5      -150252.82    
     18100   621.92297     -2328.7363      6724.9433      48.731617      2.3577398     -151744.81     -150272.87    
     18200   613.02607      54973.461      6724.9433      48.731617      2.3577398     -151747.57     -150296.68    
     18300   591.12083      29830.342      6724.9433      48.731617      2.3577398     -151693.46     -150294.41    
     18400   606.57807     -28130.772      6724.9433      48.731617      2.3577398     -151698.72     -150263.09    
     18500   642.62217      51897.731      6724.9433      48.731617      2.3577398     -151666.06     -150145.13    
     18600   613.50516     -52748.432      6724.9433      48.731617      2.3577398     -151620        -150167.98    
     18700   585.42838      52218.232      6724.9433      48.731617      2.3577398     -151631.96     -150246.39    
     18800   587.17809      36872.63       6724.9433      48.731617      2.3577398     -151684.08     -150294.37    
     18900   588.03174      14331.387      6724.9433      48.731617      2.3577398     -151693.66     -150301.93    
     19000   600.94945     -31871.546      6724.9433      48.731617      2.3577398     -151697.58     -150275.28    
     19100   636.5132       53030.429      6724.9433      48.731617      2.3577398     -151657.88     -150151.41    
     19200   608.68662      44262.978      6724.9433      48.731617      2.3577398     -151598.26     -150157.64    
     19300   604.50575     -7709.0578      6724.9433      48.731617      2.3577398     -151658.03     -150227.31    
     19400   592.23835      44763.742      6724.9433      48.731617      2.3577398     -151667.79     -150266.1     
     19500   591.09358      31595.516      6724.9433      48.731617      2.3577398     -151678.96     -150279.98    
     19600   593.79487     -6305.1284      6724.9433      48.731617      2.3577398     -151672.93     -150267.56    
     19700   632.22794      84462.492      6724.9433      48.731617      2.3577398     -151685.87     -150189.53    
     19800   620.50077      3305.2769      6724.9433      48.731617      2.3577398     -151596.96     -150128.38    
     19900   596.77121     -10485.916      6724.9433      48.731617      2.3577398     -151616.49     -150204.07    
     20000   606.48619     -7402.4997      6724.9433      48.731617      2.3577398     -151685.44     -150250.04    
     20100   601.22515      54818.032      6724.9433      48.731617      2.3577398     -151691.44     -150268.48    
     20200   617.43479     -26699.538      6724.9433      48.731617      2.3577398     -151741.79     -150280.47    
     20300   568.98482     -7100.8772      6724.9433      48.731617      2.3577398     -151707.39     -150360.73    
     20400   581.46142      23394.938      6724.9433      48.731617      2.3577398     -151762.6      -150386.42    
     20500   585.24626      73624.741      6724.9433      48.731617      2.3577398     -151700.19     -150315.06    
     20600   640.67786     -13424.653      6724.9433      48.731617      2.3577398     -151726.32     -150209.99    
     20700   629.41057     -13644.349      6724.9433      48.731617      2.3577398     -151715.09     -150225.42    
     20800   590.52253      48641.019      6724.9433      48.731617      2.3577398     -151680.83     -150283.2     
     20900   583.28566      63797.234      6724.9433      48.731617      2.3577398     -151714.67     -150334.17    
     21000   585.99869     -11289.857      6724.9433      48.731617      2.3577398     -151752.2      -150365.28    
     21100   609.4722       32385.271      6724.9433      48.731617      2.3577398     -151729.4      -150286.92    
     21200   602.6819      -30910.518      6724.9433      48.731617      2.3577398     -151629.23     -150202.82    
     21300   630.6075       74128.698      6724.9433      48.731617      2.3577398     -151694.75     -150202.25    
     21400   612.13469      52613.961      6724.9433      48.731617      2.3577398     -151729.3      -150280.52    
     21500   620.50635      2996.1095      6724.9433      48.731617      2.3577398     -151770.95     -150302.36    
     21600   593.10825     -5041.2909      6724.9433      48.731617      2.3577398     -151703.94     -150300.2     
     21700   613.32848     -7321.1656      6724.9433      48.731617      2.3577398     -151750.03     -150298.43    
     21800   571.70144      53607.574      6724.9433      48.731617      2.3577398     -151731.37     -150378.29    
     21900   584.69151      27814.165      6724.9433      48.731617      2.3577398     -151799.7      -150415.88    
     22000   585.70323      31296.861      6724.9433      48.731617      2.3577398     -151713.63     -150327.41    
     22100   597.20254      5887.4726      6724.9433      48.731617      2.3577398     -151673.94     -150260.51    
     22200   600.38323      15134.253      6724.9433      48.731617      2.3577398     -151651.5      -150230.53    
     22300   603.61542      40716.132      6724.9433      48.731617      2.3577398     -151672.89     -150244.27    
     22400   602.50966      32549.229      6724.9433      48.731617      2.3577398     -151757.95     -150331.95    
     22500   588.26539     -18324.518      6724.9433      48.731617      2.3577398     -151769.86     -150377.58    
     22600   601.24318     -18159.601      6724.9433      48.731617      2.3577398     -151772.96     -150349.96    
     22700   600.32103      48198.326      6724.9433      48.731617      2.3577398     -151698.06     -150277.24    
     22800   615.70776      21842.228      6724.9433      48.731617      2.3577398     -151695.31     -150238.08    
     22900   589.90289      10926.191      6724.9433      48.731617      2.3577398     -151642.86     -150246.7     
     23000   619.78132     -12624.322      6724.9433      48.731617      2.3577398     -151736.41     -150269.53    
     23100   573.06303      38914.574      6724.9433      48.731617      2.3577398     -151684        -150327.69    
     23200   573.63034     -13979.995      6724.9433      48.731617      2.3577398     -151703.65     -150346       
     23300   573.46581     -12934.638      6724.9433      48.731617      2.3577398     -151687.29     -150330.03    
     23400   611.19227     -1033.2644      6724.9433      48.731617      2.3577398     -151695.68     -150249.13    
     23500   615.55339      25832.377      6724.9433      48.731617      2.3577398     -151658.38     -150201.51    
     23600   631.29145      20002.303      6724.9433      48.731617      2.3577398     -151693.28     -150199.17    
     23700   592.04735     -17651.644      6724.9433      48.731617      2.3577398     -151695.56     -150294.32    
     23800   580.97813      35762.852      6724.9433      48.731617      2.3577398     -151717.59     -150342.55    
     23900   594.29816      11178.068      6724.9433      48.731617      2.3577398     -151723.58     -150317.02    
     24000   577.49408     -6673.0617      6724.9433      48.731617      2.3577398     -151655.33     -150288.54    
     24100   603.19253      33778.886      6724.9433      48.731617      2.3577398     -151680.28     -150252.66    
     24200   601.16256      57234.329      6724.9433      48.731617      2.3577398     -151657.44     -150234.63    
     24300   591.71949      6891.6337      6724.9433      48.731617      2.3577398     -151690.82     -150290.36    
     24400   581.27145      55505.904      6724.9433      48.731617      2.3577398     -151768.37     -150392.63    
     24500   582.80202     -2706.8641      6724.9433      48.731617      2.3577398     -151745.31     -150365.96    
     24600   605.57802      11234.954      6724.9433      48.731617      2.3577398     -151719.56     -150286.3     
     24700   582.06808      58278.761      6724.9433      48.731617      2.3577398     -151620.9      -150243.28    
     24800   596.5264       18221.878      6724.9433      48.731617      2.3577398     -151636.98     -150225.14    
     24900   610.34145      9770.6526      6724.9433      48.731617      2.3577398     -151679.36     -150234.82    
     25000   576.22892      41069.27       6724.9433      48.731617      2.3577398     -151718.07     -150354.28    
     25100   582.53091      15714.45       6724.9433      48.731617      2.3577398     -151735.03     -150356.32    
     25200   582.427        34791.681      6724.9433      48.731617      2.3577398     -151661        -150282.53    
     25300   601.54847      16760.78       6724.9433      48.731617      2.3577398     -151663.47     -150239.74    
     25400   614.63449      20313.049      6724.9433      48.731617      2.3577398     -151697.75     -150243.06    
     25500   585.50597      5291.2211      6724.9433      48.731617      2.3577398     -151668.78     -150283.03    
     25600   610.49002     -8781.7165      6724.9433      48.731617      2.3577398     -151726.31     -150281.43    
     25700   594.00251      16737.307      6724.9433      48.731617      2.3577398     -151708.58     -150302.72    
     25800   588.16771     -29147.125      6724.9433      48.731617      2.3577398     -151741.38     -150349.33    
     25900   604.18587      54286.179      6724.9433      48.731617      2.3577398     -151764        -150334.04    
     26000   618.36612      60205.704      6724.9433      48.731617      2.3577398     -151708.39     -150244.87    
     26100   597.59776     -29164.81       6724.9433      48.731617      2.3577398     -151647.55     -150233.18    
     26200   602.34318      5164.3342      6724.9433      48.731617      2.3577398     -151716.3      -150290.69    
     26300   572.61969      43006.622      6724.9433      48.731617      2.3577398     -151710.49     -150355.24    
     26400   587.9066       19971.133      6724.9433      48.731617      2.3577398     -151734.58     -150343.15    
     26500   595.85187      17094.94       6724.9433      48.731617      2.3577398     -151716.07     -150305.83    
     26600   586.67614      21580.979      6724.9433      48.731617      2.3577398     -151645.35     -150256.83    
     26700   606.67957      68146.33       6724.9433      48.731617      2.3577398     -151669.27     -150233.41    
     26800   591.86756     -14055.685      6724.9433      48.731617      2.3577398     -151669.16     -150268.35    
     26900   587.65752     -4973.0289      6724.9433      48.731617      2.3577398     -151786.14     -150395.3     
     27000   555.45689      60914.291      6724.9433      48.731617      2.3577398     -151746.67     -150432.03    
     27100   564.3318       736.48026      6724.9433      48.731617      2.3577398     -151678.2      -150342.56    
     27200   600.46287     -25913.636      6724.9433      48.731617      2.3577398     -151688.28     -150267.13    
     27300   599.34272     -28144.114      6724.9433      48.731617      2.3577398     -151662.69     -150244.19    
     27400   629.99914      3999.9135      6724.9433      48.731617      2.3577398     -151723.55     -150232.5     
     27500   611.71687      71371.729      6724.9433      48.731617      2.3577398     -151729.94     -150282.15    
     27600   586.98596     -19197.166      6724.9433      48.731617      2.3577398     -151744.88     -150355.62    
     27700   590.54132     -12672.988      6724.9433      48.731617      2.3577398     -151782.48     -150384.8     
     27800   602.70962     -8890.5122      6724.9433      48.731617      2.3577398     -151765.4      -150338.92    
     27900   606.55213     -8246.8932      6724.9433      48.731617      2.3577398     -151669.75     -150234.18    
     28000   609.07629     -22953.567      6724.9433      48.731617      2.3577398     -151662.94     -150221.4     
     28100   606.3718      -45455.84       6724.9433      48.731617      2.3577398     -151706.55     -150271.41    
     28200   576.81695      4129.7542      6724.9433      48.731617      2.3577398     -151713.55     -150348.36    
     28300   571.21885      27968.401      6724.9433      48.731617      2.3577398     -151692.36     -150340.42    
     28400   604.71585     -30397.754      6724.9433      48.731617      2.3577398     -151731.23     -150300.01    
     28500   609.51091     -17310.653      6724.9433      48.731617      2.3577398     -151718.31     -150275.74    
     28600   581.81893      9352.4024      6724.9433      48.731617      2.3577398     -151628.05     -150251.02    
     28700   615.27822      28303.865      6724.9433      48.731617      2.3577398     -151664.51     -150208.29    
     28800   614.14447      5259.017       6724.9433      48.731617      2.3577398     -151609.5      -150155.96    
     28900   591.97023      25803.178      6724.9433      48.731617      2.3577398     -151619.91     -150218.85    
     29000   602.26227      41264.781      6724.9433      48.731617      2.3577398     -151727.21     -150301.8     
     29100   591.5068       46408.637      6724.9433      48.731617      2.3577398     -151713.28     -150313.32    
     29200   586.86887     -43568.299      6724.9433      48.731617      2.3577398     -151658.78     -150269.8     
     29300   612.50925      29939.658      6724.9433      48.731617      2.3577398     -151634.82     -150185.16    
     29400   641.65995      2433.7244      6724.9433      48.731617      2.3577398     -151666.38     -150147.72    
     29500   601.6479       54262.562      6724.9433      48.731617      2.3577398     -151654.89     -150230.93    
     29600   595.87792     -24849.373      6724.9433      48.731617      2.3577398     -151678.91     -150268.61    
     29700   584.32071     -12831.506      6724.9433      48.731617      2.3577398     -151675.01     -150292.06    
     29800   621.35734      44551.075      6724.9433      48.731617      2.3577398     -151779.69     -150309.09    
     29900   606.20011      2453.2049      6724.9433      48.731617      2.3577398     -151769.89     -150335.16    
     30000   589.86621     -5759.0975      6724.9433      48.731617      2.3577398     -151710.16     -150314.09    
     30100   595.39838      31277.051      6724.9433      48.731617      2.3577398     -151632.88     -150223.72    
     30200   631.18942      16352.251      6724.9433      48.731617      2.3577398     -151677.57     -150183.7     
     30300   593.60478      9118.7602      6724.9433      48.731617      2.3577398     -151641.73     -150236.81    
     30400   576.2265       27763.395      6724.9433      48.731617      2.3577398     -151662.55     -150298.76    
     30500   592.93956     -18413.558      6724.9433      48.731617      2.3577398     -151690.98     -150287.63    
     30600   591.21522      75095.567      6724.9433      48.731617      2.3577398     -151676.42     -150277.16    
     30700   605.00428     -36774.893      6724.9433      48.731617      2.3577398     -151709.55     -150277.65    
     30800   612.96402      8939.0655      6724.9433      48.731617      2.3577398     -151726.12     -150275.38    
     30900   602.88975      48891.454      6724.9433      48.731617      2.3577398     -151686.58     -150259.68    
     31000   593.99181      30871.812      6724.9433      48.731617      2.3577398     -151631.24     -150225.4     
     31100   595.76759      7122.3458      6724.9433      48.731617      2.3577398     -151596.25     -150186.21    
     31200   606.38061      70374.226      6724.9433      48.731617      2.3577398     -151648.14     -150212.98    
     31300   604.59621      20986.108      6724.9433      48.731617      2.3577398     -151758.29     -150327.36    
     31400   582.46147      6563.2133      6724.9433      48.731617      2.3577398     -151723.43     -150344.88    
     31500   574.30654      31113.296      6724.9433      48.731617      2.3577398     -151664.04     -150304.79    
     31600   599.79384     -14430.169      6724.9433      48.731617      2.3577398     -151650.18     -150230.61    
     31700   624.00021      15708.651      6724.9433      48.731617      2.3577398     -151690.11     -150213.25    
     31800   615.41722      1767.1931      6724.9433      48.731617      2.3577398     -151715.13     -150258.58    
     31900   603.22314     -9055.3268      6724.9433      48.731617      2.3577398     -151713.21     -150285.52    
     32000   593.38081      23147.895      6724.9433      48.731617      2.3577398     -151724.07     -150319.68    
     32100   622.35063      62205.229      6724.9433      48.731617      2.3577398     -151785.19     -150312.23    
     32200   623.36218      4040.1806      6724.9433      48.731617      2.3577398     -151682.45     -150207.09    
     32300   627.70637     -8540.3188      6724.9433      48.731617      2.3577398     -151661.43     -150175.8     
     32400   630.58943      16635.951      6724.9433      48.731617      2.3577398     -151718.26     -150225.81    
     32500   578.71467      38556.749      6724.9433      48.731617      2.3577398     -151651.7      -150282.02    
     32600   589.83351     -14440.336      6724.9433      48.731617      2.3577398     -151685        -150289       
     32700   619.18135      59908.527      6724.9433      48.731617      2.3577398     -151733.66     -150268.21    
     32800   609.37961      27505.013      6724.9433      48.731617      2.3577398     -151684.22     -150241.96    
     32900   615.34154      2968.282       6724.9433      48.731617      2.3577398     -151602.2      -150145.84    
     33000   624.22325      69453.691      6724.9433      48.731617      2.3577398     -151631.54     -150154.15    
     33100   605.81639      39031.617      6724.9433      48.731617      2.3577398     -151681.18     -150247.35    
     33200   595.28945      11459.477      6724.9433      48.731617      2.3577398     -151699.77     -150290.86    
     33300   589.88402      10270.304      6724.9433      48.731617      2.3577398     -151688.08     -150291.96    
     33400   571.17174      53008.573      6724.9433      48.731617      2.3577398     -151634.03     -150282.2     
     33500   607.36246      23208.571      6724.9433      48.731617      2.3577398     -151629.86     -150192.37    
     33600   628.87227      13161.957      6724.9433      48.731617      2.3577398     -151644.01     -150155.62    
     33700   610.09263     -7109.8847      6724.9433      48.731617      2.3577398     -151684.43     -150240.49    
     33800   602.71848      32981.637      6724.9433      48.731617      2.3577398     -151708.61     -150282.11    
     33900   610.30094     -16178.239      6724.9433      48.731617      2.3577398     -151731.76     -150287.32    
     34000   604.47651      43942.922      6724.9433      48.731617      2.3577398     -151694.06     -150263.41    
     34100   573.94307     -16877.871      6724.9433      48.731617      2.3577398     -151619.65     -150261.26    
     34200   577.93824      25729.269      6724.9433      48.731617      2.3577398     -151642.32     -150274.48    
     34300   591.99444      91345.448      6724.9433      48.731617      2.3577398     -151685.03     -150283.92    
     34400   562.06432      52603.292      6724.9433      48.731617      2.3577398     -151623.38     -150293.11    
     34500   607.00959     -6497.7576      6724.9433      48.731617      2.3577398     -151695.98     -150259.33    
     34600   616.99362     -14352.88       6724.9433      48.731617      2.3577398     -151669.62     -150209.34    
     34700   627.46316      54452.546      6724.9433      48.731617      2.3577398     -151676.65     -150191.59    
     34800   583.79061      39160.84       6724.9433      48.731617      2.3577398     -151642.32     -150260.62    
     34900   589.32226     -1905.7892      6724.9433      48.731617      2.3577398     -151720.18     -150325.39    
     35000   594.32974     -1349.4669      6724.9433      48.731617      2.3577398     -151726.11     -150319.47    
     35100   611.68634     -34766.32       6724.9433      48.731617      2.3577398     -151702.67     -150254.95    
     35200   643.2593       15171.008      6724.9433      48.731617      2.3577398     -151676.59     -150154.15    
     35300   621.96076      32549.303      6724.9433      48.731617      2.3577398     -151644.21     -150172.18    
     35400   618.86839      25737.726      6724.9433      48.731617      2.3577398     -151691.81     -150227.1     
     35500   596.81547     -29797.006      6724.9433      48.731617      2.3577398     -151667.6      -150255.08    
     35600   611.26944     -27546.33       6724.9433      48.731617      2.3577398     -151718.45     -150271.72    
     35700   598.1559       54266.893      6724.9433      48.731617      2.3577398     -151726.29     -150310.6     
     35800   588.76349      12427.323      6724.9433      48.731617      2.3577398     -151754.24     -150360.78    
     35900   575.04078      14664.206      6724.9433      48.731617      2.3577398     -151757.11     -150396.12    
     36000   585.73537     -1383.4423      6724.9433      48.731617      2.3577398     -151714.15     -150327.86    
     36100   603.43761      13505.297      6724.9433      48.731617      2.3577398     -151679.06     -150250.86    
     36200   616.46499     -39984.543      6724.9433      48.731617      2.3577398     -151682.84     -150223.81    
     36300   588.20034      9079.0879      6724.9433      48.731617      2.3577398     -151652.9      -150260.77    
     36400   581.42875      63865.78       6724.9433      48.731617      2.3577398     -151714.52     -150338.41    
     36500   579.87717      7006.6807      6724.9433      48.731617      2.3577398     -151760.31     -150387.88    
     36600   596.62679     -28466.323      6724.9433      48.731617      2.3577398     -151736.42     -150324.35    
     36700   577.83013      46486.786      6724.9433      48.731617      2.3577398     -151595.17     -150227.59    
     36800   615.4939       49521.782      6724.9433      48.731617      2.3577398     -151657.87     -150201.14    
     36900   612.37624     -8672.1516      6724.9433      48.731617      2.3577398     -151704.27     -150254.92    
     37000   592.90293     -14610.226      6724.9433      48.731617      2.3577398     -151735.83     -150332.57    
     37100   574.24693      14921.916      6724.9433      48.731617      2.3577398     -151696.92     -150337.81    
     37200   571.01001     -12053.066      6724.9433      48.731617      2.3577398     -151655.7      -150304.26    
     37300   576.40799      7256.2752      6724.9433      48.731617      2.3577398     -151648.01     -150283.79    
     37400   597.795        47924.694      6724.9433      48.731617      2.3577398     -151680.46     -150265.62    
     37500   609.55761     -21715.524      6724.9433      48.731617      2.3577398     -151673.63     -150230.95    
     37600   627.30172      593.01838      6724.9433      48.731617      2.3577398     -151659.26     -150174.59    
     37700   623.7393       8663.2401      6724.9433      48.731617      2.3577398     -151590.82     -150114.58    
     37800   611.48298     -27151.742      6724.9433      48.731617      2.3577398     -151605.88     -150158.65    
     37900   596.48557      42354.323      6724.9433      48.731617      2.3577398     -151679.93     -150268.19    
     38000   617.55253      12252.783      6724.9433      48.731617      2.3577398     -151761.83     -150300.23    
     38100   591.19839      22227.065      6724.9433      48.731617      2.3577398     -151717.03     -150317.8     
     38200   586.19745     -7063.8555      6724.9433      48.731617      2.3577398     -151656.45     -150269.05    
     38300   620.92427      57072.548      6724.9433      48.731617      2.3577398     -151653.57     -150183.99    
     38400   617.86012      20381.844      6724.9433      48.731617      2.3577398     -151665.06     -150202.73    
     38500   597.00014      1808.987       6724.9433      48.731617      2.3577398     -151669.03     -150256.07    
     38600   596.94301     -31520.923      6724.9433      48.731617      2.3577398     -151697.41     -150284.58    
     38700   573.17331      68984.877      6724.9433      48.731617      2.3577398     -151637.4      -150280.84    
     38800   618.56643      25096.005      6724.9433      48.731617      2.3577398     -151714.36     -150250.36    
     38900   629.07094     -40701.347      6724.9433      48.731617      2.3577398     -151743.12     -150254.26    
     39000   609.59964      14716.05       6724.9433      48.731617      2.3577398     -151758.9      -150316.12    
     39100   587.39239      75789.718      6724.9433      48.731617      2.3577398     -151736.48     -150346.26    
     39200   594.84723     -13002.986      6724.9433      48.731617      2.3577398     -151683.79     -150275.93    
     39300   609.09655     -42804.768      6724.9433      48.731617      2.3577398     -151663.4      -150221.81    
     39400   600.14371      75757.096      6724.9433      48.731617      2.3577398     -151630.83     -150210.43    
     39500   582.71791      57372.538      6724.9433      48.731617      2.3577398     -151674.52     -150295.37    
     39600   584.05497      41219.827      6724.9433      48.731617      2.3577398     -151737.87     -150355.55    
     39700   585.33535     -1593.5907      6724.9433      48.731617      2.3577398     -151708.15     -150322.8     
     39800   615.22437      5484.0457      6724.9433      48.731617      2.3577398     -151710.88     -150254.79    
     39900   592.94158      23164.359      6724.9433      48.731617      2.3577398     -151644.88     -150241.52    
     40000   610.50829     -2970.2667      6724.9433      48.731617      2.3577398     -151718.62     -150273.7     
     40100   574.22642      5793.8852      6724.9433      48.731617      2.3577398     -151713.76     -150354.7     
     40200   579.83625      8056.8059      6724.9433      48.731617      2.3577398     -151792.71     -150420.38    
     40300   559.00706     -15548.464      6724.9433      48.731617      2.3577398     -151767.44     -150444.4     
     40400   579.86808      7169.2479      6724.9433      48.731617      2.3577398     -151713.34     -150340.93    
     40500   619.43987      22080.684      6724.9433      48.731617      2.3577398     -151727.39     -150261.32    
     40600   611.30887      61018.615      6724.9433      48.731617      2.3577398     -151665.15     -150218.33    
     40700   621.3538       20581.732      6724.9433      48.731617      2.3577398     -151679.84     -150209.25    
     40800   585.57206     -16208.408      6724.9433      48.731617      2.3577398     -151685.3      -150299.39    
     40900   580.3383       14066.168      6724.9433      48.731617      2.3577398     -151737.07     -150363.55    
     41000   582.72         1192.7664      6724.9433      48.731617      2.3577398     -151701        -150321.84    
     41100   589.98954     -48886.086      6724.9433      48.731617      2.3577398     -151671.78     -150275.42    
     41200   623.10022      2347.661       6724.9433      48.731617      2.3577398     -151728.94     -150254.21    
     41300   611.9683       47179.828      6724.9433      48.731617      2.3577398     -151722.64     -150274.25    
     41400   568.92765      46570.738      6724.9433      48.731617      2.3577398     -151715.07     -150368.55    
     41500   546.52587      15998.656      6724.9433      48.731617      2.3577398     -151679.51     -150386.01    
     41600   595.83179      45041.777      6724.9433      48.731617      2.3577398     -151712.99     -150302.8     
     41700   613.34674      3026.0579      6724.9433      48.731617      2.3577398     -151705.55     -150253.91    
     41800   615.75847      36124.538      6724.9433      48.731617      2.3577398     -151712.46     -150255.1     
     41900   598.77016      30240.416      6724.9433      48.731617      2.3577398     -151690.11     -150272.96    
     42000   581.8103       3980.0936      6724.9433      48.731617      2.3577398     -151731.82     -150354.81    
     42100   591.82505     -632.67269      6724.9433      48.731617      2.3577398     -151816.34     -150415.63    
     42200   587.06851      29530.3        6724.9433      48.731617      2.3577398     -151759.77     -150370.31    
     42300   571.71799      61355.947      6724.9433      48.731617      2.3577398     -151656.46     -150303.34    
     42400   581.13595     -32199.718      6724.9433      48.731617      2.3577398     -151641.67     -150266.26    
     42500   595.54823      40941.166      6724.9433      48.731617      2.3577398     -151623.7      -150214.18    
     42600   617.20193      23645.859      6724.9433      48.731617      2.3577398     -151659.04     -150198.27    
     42700   596.08947      33827.03       6724.9433      48.731617      2.3577398     -151682.76     -150271.96    
     42800   573.30085     -12974.663      6724.9433      48.731617      2.3577398     -151705.31     -150348.44    
     42900   584.69026     -5311.1867      6724.9433      48.731617      2.3577398     -151711.13     -150327.31    
     43000   594.73083      9133.0986      6724.9433      48.731617      2.3577398     -151670.44     -150262.85    
     43100   632.82031      36840.254      6724.9433      48.731617      2.3577398     -151723.99     -150226.26    
     43200   594.94196     -14028.893      6724.9433      48.731617      2.3577398     -151641.72     -150233.64    
     43300   594.48556      38566.638      6724.9433      48.731617      2.3577398     -151652.94     -150245.93    
     43400   570.46814      4634.2939      6724.9433      48.731617      2.3577398     -151614.23     -150264.06    
     43500   578.02417      50250.429      6724.9433      48.731617      2.3577398     -151707.64     -150339.59    
     43600   596.38405     -2583.3089      6724.9433      48.731617      2.3577398     -151767.54     -150356.04    
     43700   588.58859     -35393.835      6724.9433      48.731617      2.3577398     -151680.36     -150287.31    
     43800   613.19274      39291.525      6724.9433      48.731617      2.3577398     -151661.32     -150210.04    
     43900   585.16954      39018.964      6724.9433      48.731617      2.3577398     -151597.94     -150212.98    
     44000   574.34238     -30538.266      6724.9433      48.731617      2.3577398     -151598.18     -150238.84    
     44100   609.59407      32692.351      6724.9433      48.731617      2.3577398     -151734.27     -150291.51    
     44200   572.66728     -1400.9838      6724.9433      48.731617      2.3577398     -151749.06     -150393.69    
     44300   583.18329      61653.644      6724.9433      48.731617      2.3577398     -151758.39     -150378.14    
     44400   587.24257     -14053.705      6724.9433      48.731617      2.3577398     -151705.93     -150316.06    
     44500   610.35748      40475.569      6724.9433      48.731617      2.3577398     -151724.15     -150279.57    
     44600   599.9186       30719.965      6724.9433      48.731617      2.3577398     -151695.15     -150275.29    
     44700   595.77241      34771.013      6724.9433      48.731617      2.3577398     -151682.31     -150272.25    
     44800   575.98857      45980.423      6724.9433      48.731617      2.3577398     -151654.05     -150290.82    
     44900   569.03089      22136.175      6724.9433      48.731617      2.3577398     -151658.06     -150311.29    
     45000   606.74378      5513.776       6724.9433      48.731617      2.3577398     -151720.18     -150284.16    
     45100   612.92019     -21715.145      6724.9433      48.731617      2.3577398     -151672.77     -150222.13    
     45200   618.6094       48048.298      6724.9433      48.731617      2.3577398     -151653.07     -150188.97    
     45300   593.71349      12708.475      6724.9433      48.731617      2.3577398     -151672.09     -150266.91    
     45400   592.62566     -13001.668      6724.9433      48.731617      2.3577398     -151744.4      -150341.79    
     45500   593.01987     -19246.725      6724.9433      48.731617      2.3577398     -151742.15     -150338.62    
     45600   602.89416      44286.753      6724.9433      48.731617      2.3577398     -151703.55     -150276.64    
     45700   618.52939      10774.252      6724.9433      48.731617      2.3577398     -151675.1      -150211.19    
     45800   624.48412     -2324.46        6724.9433      48.731617      2.3577398     -151698.24     -150220.23    
     45900   603.90695      21281.892      6724.9433      48.731617      2.3577398     -151694.86     -150265.55    
     46000   591.82505      3328.9505      6724.9433      48.731617      2.3577398     -151713.59     -150312.88    
     46100   596.34091     -14435.556      6724.9433      48.731617      2.3577398     -151725.55     -150314.16    
     46200   609.69098      56557.899      6724.9433      48.731617      2.3577398     -151738.87     -150295.87    
     46300   609.47507      9961.8277      6724.9433      48.731617      2.3577398     -151717.56     -150275.08    
     46400   623.64055      22786.19       6724.9433      48.731617      2.3577398     -151708.31     -150232.3     
     46500   586.80029      27091.425      6724.9433      48.731617      2.3577398     -151605.64     -150216.82    
     46600   618.38738      10913.09       6724.9433      48.731617      2.3577398     -151679.6      -150216.03    
     46700   597.62113      3647.4039      6724.9433      48.731617      2.3577398     -151681.11     -150266.68    
     46800   595.62908      33393.707      6724.9433      48.731617      2.3577398     -151728.12     -150318.41    
     46900   575.90287     -21729.716      6724.9433      48.731617      2.3577398     -151734.32     -150371.29    
     47000   566.62708     -11916.504      6724.9433      48.731617      2.3577398     -151716.69     -150375.61    
     47100   590.49783      45717.125      6724.9433      48.731617      2.3577398     -151656.38     -150258.81    
     47200   592.59306      28910.016      6724.9433      48.731617      2.3577398     -151600.15     -150197.63    
     47300   606.30343     -49165.954      6724.9433      48.731617      2.3577398     -151645.31     -150210.34    
     47400   609.64421      58851.931      6724.9433      48.731617      2.3577398     -151715.73     -150272.85    
     47500   595.60944      5031.981       6724.9433      48.731617      2.3577398     -151728.82     -150319.15    
     47600   597.49103      47845.18       6724.9433      48.731617      2.3577398     -151728.88     -150314.76    
     47700   598.66085     -10273.956      6724.9433      48.731617      2.3577398     -151629.27     -150212.38    
     47800   607.00347      42506.867      6724.9433      48.731617      2.3577398     -151601.09     -150164.46    
     47900   575.11897     -34968.053      6724.9433      48.731617      2.3577398     -151588.66     -150227.48    
     48000   586.2366       47098.251      6724.9433      48.731617      2.3577398     -151669.91     -150282.42    
     48100   582.028        22515.64       6724.9433      48.731617      2.3577398     -151691.21     -150313.69    
     48200   585.94616     -23920.986      6724.9433      48.731617      2.3577398     -151696.41     -150309.62    
     48300   604.35972      49683.492      6724.9433      48.731617      2.3577398     -151628.16     -150197.79    
     48400   640.11616     -323.89106      6724.9433      48.731617      2.3577398     -151640.03     -150125.02    
     48500   624.69267      28894.086      6724.9433      48.731617      2.3577398     -151673.46     -150194.96    
     48600   579.40291      31908.399      6724.9433      48.731617      2.3577398     -151630.27     -150258.96    
     48700   584.56063      27024.147      6724.9433      48.731617      2.3577398     -151665.91     -150282.4     
     48800   585.63026      15280.348      6724.9433      48.731617      2.3577398     -151651.43     -150265.38    
     48900   624.60267     -23310.69       6724.9433      48.731617      2.3577398     -151657.96     -150179.67    
     49000   634.60058     -1703.8638      6724.9433      48.731617      2.3577398     -151656.49     -150154.54    
     49100   596.53366      70842.538      6724.9433      48.731617      2.3577398     -151666.11     -150254.26    
     49200   610.20668      67001.147      6724.9433      48.731617      2.3577398     -151719.24     -150275.03    
     49300   625.95376     -10271.944      6724.9433      48.731617      2.3577398     -151743.71     -150262.23    
     49400   593.95364     -8944.0462      6724.9433      48.731617      2.3577398     -151677.83     -150272.08    
     49500   588.34699      43425.262      6724.9433      48.731617      2.3577398     -151650.5      -150258.02    
     49600   581.11247      64894.827      6724.9433      48.731617      2.3577398     -151621.24     -150245.88    
     49700   584.1411       2779.7119      6724.9433      48.731617      2.3577398     -151583.4      -150200.88    
     49800   608.64221     -28288.277      6724.9433      48.731617      2.3577398     -151612.02     -150171.5     
     49900   613.70201      43263.768      6724.9433      48.731617      2.3577398     -151680.3      -150227.82    
     50000   609.7433       14890.605      6724.9433      48.731617      2.3577398     -151756.91     -150313.79    
     50100   590.52136     -14637.502      6724.9433      48.731617      2.3577398     -151727.39     -150329.76    
     50200   596.75798     -17268.671      6724.9433      48.731617      2.3577398     -151718.64     -150306.26    
     50300   631.61197      25062.188      6724.9433      48.731617      2.3577398     -151719.77     -150224.9     
     50400   610.56995      15691.954      6724.9433      48.731617      2.3577398     -151612.51     -150167.44    
     50500   619.22978      9903.1661      6724.9433      48.731617      2.3577398     -151660.1      -150194.53    
     50600   591.88826      9525.8602      6724.9433      48.731617      2.3577398     -151647.54     -150246.68    
     50700   603.93246      57452.166      6724.9433      48.731617      2.3577398     -151696.44     -150267.07    
     50800   605.30443      33318.498      6724.9433      48.731617      2.3577398     -151702.28     -150269.67    
     50900   601.88483     -21188.549      6724.9433      48.731617      2.3577398     -151698.02     -150273.5     
     51000   573.59157      27635.645      6724.9433      48.731617      2.3577398     -151664.96     -150307.41    
     51100   579.86419      28473.995      6724.9433      48.731617      2.3577398     -151737.64     -150365.23    
     51200   577.85849     -42820.981      6724.9433      48.731617      2.3577398     -151770.49     -150402.84    
     51300   611.0983       29644.646      6724.9433      48.731617      2.3577398     -151770.25     -150323.93    
     51400   605.08006      8646.3117      6724.9433      48.731617      2.3577398     -151678        -150245.92    
     51500   603.78832     -3441.7521      6724.9433      48.731617      2.3577398     -151681.81     -150252.78    
     51600   596.27535      453.47231      6724.9433      48.731617      2.3577398     -151707.63     -150296.39    
     51700   568.1245       6846.4439      6724.9433      48.731617      2.3577398     -151681.22     -150336.61    
     51800   566.26618      6541.5829      6724.9433      48.731617      2.3577398     -151750.73     -150410.51    
     51900   553.69884      43000.365      6724.9433      48.731617      2.3577398     -151719.19     -150408.72    
     52000   604.18882      43365.399      6724.9433      48.731617      2.3577398     -151736.93     -150306.96    
     52100   605.69303      2702.4309      6724.9433      48.731617      2.3577398     -151703.47     -150269.94    
     52200   612.87575      17564.961      6724.9433      48.731617      2.3577398     -151696.33     -150245.8     
     52300   593.97211      13908.779      6724.9433      48.731617      2.3577398     -151668.23     -150262.44    
     52400   597.4395       41126.036      6724.9433      48.731617      2.3577398     -151735.35     -150321.35    
     52500   584.11107      1137.217       6724.9433      48.731617      2.3577398     -151758.2      -150375.75    
     52600   577.45872     -19586.825      6724.9433      48.731617      2.3577398     -151704.86     -150338.15    
     52700   604.3688       23637.007      6724.9433      48.731617      2.3577398     -151668.51     -150238.12    
     52800   622.63845      51859.144      6724.9433      48.731617      2.3577398     -151686.21     -150212.57    
     52900   591.1003      -3048.5245      6724.9433      48.731617      2.3577398     -151623.91     -150224.92    
     53000   605.93389      59276.601      6724.9433      48.731617      2.3577398     -151679.29     -150245.19    
     53100   574.1881      -31786.833      6724.9433      48.731617      2.3577398     -151705.73     -150346.77    
     53200   563.4208       50930.04       6724.9433      48.731617      2.3577398     -151705.12     -150371.63    
     53300   614.80128      24747.946      6724.9433      48.731617      2.3577398     -151774.1      -150319.01    
     53400   590.82743     -49908.691      6724.9433      48.731617      2.3577398     -151675.26     -150276.91    
     53500   578.17427      47449.512      6724.9433      48.731617      2.3577398     -151627.36     -150258.96    
     53600   618.91017      111148.22      6724.9433      48.731617      2.3577398     -151705.54     -150240.72    
     53700   580.85381      47880.625      6724.9433      48.731617      2.3577398     -151605.79     -150231.05    
     53800   630.41        -18691.299      6724.9433      48.731617      2.3577398     -151650.66     -150158.63    
     53900   619.51584     -18353.633      6724.9433      48.731617      2.3577398     -151593.53     -150127.28    
     54000   604.43809      74134.309      6724.9433      48.731617      2.3577398     -151654.13     -150223.57    
     54100   609.2247      -48796.424      6724.9433      48.731617      2.3577398     -151736.18     -150294.29    
     54200   583.36673     -34383.902      6724.9433      48.731617      2.3577398     -151686.99     -150306.29    
     54300   595.6594       89650.044      6724.9433      48.731617      2.3577398     -151677.21     -150267.42    
     54400   605.9337       38400.935      6724.9433      48.731617      2.3577398     -151637.57     -150203.47    
     54500   646.36786      29794.664      6724.9433      48.731617      2.3577398     -151654.04     -150124.24    
     54600   635.82335      30862.711      6724.9433      48.731617      2.3577398     -151671.9      -150167.06    
     54700   598.47454     -1221.6559      6724.9433      48.731617      2.3577398     -151692.74     -150276.29    
     54800   602.6113       48688.027      6724.9433      48.731617      2.3577398     -151710.03     -150283.79    
     54900   575.52414      24800.546      6724.9433      48.731617      2.3577398     -151638.66     -150276.53    
     55000   590.25605      3269.1211      6724.9433      48.731617      2.3577398     -151630.8      -150233.81    
     55100   605.72382      33205.299      6724.9433      48.731617      2.3577398     -151610.99     -150177.39    
     55200   604.52247      48568.988      6724.9433      48.731617      2.3577398     -151660.9      -150230.14    
     55300   575.60591      34334.12       6724.9433      48.731617      2.3577398     -151694.46     -150332.14    
     55400   597.16754      44538.099      6724.9433      48.731617      2.3577398     -151751.7      -150338.35    
     55500   608.71235      54565.3        6724.9433      48.731617      2.3577398     -151733.07     -150292.39    
     55600   599.87523      14433.326      6724.9433      48.731617      2.3577398     -151665.38     -150245.62    
     55700   585.32184      41559.261      6724.9433      48.731617      2.3577398     -151620.24     -150234.92    
     55800   599.03213      37143.603      6724.9433      48.731617      2.3577398     -151695.66     -150277.89    
     55900   582.40966      8933.2244      6724.9433      48.731617      2.3577398     -151716.79     -150338.36    
     56000   585.33373     -44064.52       6724.9433      48.731617      2.3577398     -151741.07     -150355.72    
     56100   600.61177     -11558.97       6724.9433      48.731617      2.3577398     -151724.37     -150302.87    
     56200   620.51764      28454.625      6724.9433      48.731617      2.3577398     -151693.31     -150224.69    
     56300   630.47897      5881.8773      6724.9433      48.731617      2.3577398     -151712.69     -150220.5     
     56400   611.13178      3791.4671      6724.9433      48.731617      2.3577398     -151690.72     -150244.32    
     56500   591.36688      26390.862      6724.9433      48.731617      2.3577398     -151670.28     -150270.65    
     56600   583.98019      30422.382      6724.9433      48.731617      2.3577398     -151652.53     -150270.39    
     56700   611.69466      1242.3964      6724.9433      48.731617      2.3577398     -151705.07     -150257.34    
     56800   591.18349     -23564.842      6724.9433      48.731617      2.3577398     -151669.17     -150269.98    
     56900   599.26054      36520.339      6724.9433      48.731617      2.3577398     -151738.1      -150319.79    
     57000   570.96586      37389.818      6724.9433      48.731617      2.3577398     -151726        -150374.66    
     57100   592.46489     -37939.129      6724.9433      48.731617      2.3577398     -151739.39     -150337.17    
     57200   623.19497      405.51501      6724.9433      48.731617      2.3577398     -151706.39     -150231.44    
     57300   603.2984      -24901.036      6724.9433      48.731617      2.3577398     -151662.67     -150234.8     
     57400   598.09766      65451.565      6724.9433      48.731617      2.3577398     -151686.32     -150270.77    
     57500   589.85318      80724.319      6724.9433      48.731617      2.3577398     -151711.61     -150315.56    
     57600   581.25659     -30041.611      6724.9433      48.731617      2.3577398     -151735.62     -150359.93    
     57700   590.86015     -6388.5169      6724.9433      48.731617      2.3577398     -151831.09     -150432.66    
     57800   579.41428      70232.351      6724.9433      48.731617      2.3577398     -151767.86     -150396.52    
     57900   593.03512      43161.656      6724.9433      48.731617      2.3577398     -151699.83     -150296.25    
     58000   576.5911      -14373.522      6724.9433      48.731617      2.3577398     -151622.76     -150258.11    
     58100   614.19982     -2126.8547      6724.9433      48.731617      2.3577398     -151696.08     -150242.41    
     58200   625.38655      55248.6        6724.9433      48.731617      2.3577398     -151736.39     -150256.25    
     58300   598.31747      44891.405      6724.9433      48.731617      2.3577398     -151740.84     -150324.76    
     58400   575.14687     -16231.658      6724.9433      48.731617      2.3577398     -151733.04     -150371.8     
     58500   610.67239      34240.719      6724.9433      48.731617      2.3577398     -151766.45     -150321.13    
     58600   620.48702      49583.127      6724.9433      48.731617      2.3577398     -151678.92     -150210.37    
     58700   609.73786      62220.007      6724.9433      48.731617      2.3577398     -151651.63     -150208.53    
     58800   577.43519     -40666.163      6724.9433      48.731617      2.3577398     -151613.48     -150246.83    
     58900   594.59653     -4414.0891      6724.9433      48.731617      2.3577398     -151710.21     -150302.94    
     59000   585.04767      25479.548      6724.9433      48.731617      2.3577398     -151720.42     -150335.75    
     59100   586.28215      51810.223      6724.9433      48.731617      2.3577398     -151689.21     -150301.61    
     59200   618.39551     -28300.68       6724.9433      48.731617      2.3577398     -151674.59     -150210.99    
     59300   610.05885      30734.6        6724.9433      48.731617      2.3577398     -151664.34     -150220.48    
     59400   591.13947      68256.209      6724.9433      48.731617      2.3577398     -151681.24     -150282.15    
     59500   607.70007      29801.918      6724.9433      48.731617      2.3577398     -151760.86     -150322.58    
     59600   607.44274      18957.839      6724.9433      48.731617      2.3577398     -151758.95     -150321.28    
     59700   598.8329       6592.8215      6724.9433      48.731617      2.3577398     -151668.83     -150251.54    
     59800   613.51266      63424.779      6724.9433      48.731617      2.3577398     -151668.64     -150216.6     
     59900   610.1608      -7580.5662      6724.9433      48.731617      2.3577398     -151686.52     -150242.42    
     60000   579.30028      44174.6        6724.9433      48.731617      2.3577398     -151681.88     -150310.81    
     60100   580.22583      48801.787      6724.9433      48.731617      2.3577398     -151728.77     -150355.52    
     60200   578.9318       27653.898      6724.9433      48.731617      2.3577398     -151744.3      -150374.11    
     60300   623.17264     -31554.039      6724.9433      48.731617      2.3577398     -151775.68     -150300.77    
     60400   593.0871       29681.326      6724.9433      48.731617      2.3577398     -151647.83     -150244.13    
     60500   611.63501     -12574.048      6724.9433      48.731617      2.3577398     -151675.32     -150227.73    
     60600   588.35893      11408.436      6724.9433      48.731617      2.3577398     -151709.54     -150317.04    
     60700   577.27228      17915.903      6724.9433      48.731617      2.3577398     -151721.12     -150354.85    
     60800   583.61266      67271.975      6724.9433      48.731617      2.3577398     -151701.48     -150320.21    
     60900   602.45069      36182.21       6724.9433      48.731617      2.3577398     -151703.69     -150277.84    
     61000   604.25271     -55638.211      6724.9433      48.731617      2.3577398     -151700        -150269.88    
     61100   610.37351      11394.762      6724.9433      48.731617      2.3577398     -151740.23     -150295.63    
     61200   587.40933      77570.383      6724.9433      48.731617      2.3577398     -151711.74     -150321.48    
     61300   599.132        44454.124      6724.9433      48.731617      2.3577398     -151728.48     -150310.47    
     61400   609.08979     -27088.878      6724.9433      48.731617      2.3577398     -151701.85     -150260.28    
     61500   601.48596      23210.451      6724.9433      48.731617      2.3577398     -151651.8      -150228.23    
     61600   620.09971      41701.235      6724.9433      48.731617      2.3577398     -151703.78     -150236.15    
     61700   592.32101      24208.111      6724.9433      48.731617      2.3577398     -151669.1      -150267.22    
     61800   586.78305      13899.298      6724.9433      48.731617      2.3577398     -151698.26     -150309.49    
     61900   587.39687      35037.959      6724.9433      48.731617      2.3577398     -151689.78     -150299.55    
     62000   636.25869     -2916.8627      6724.9433      48.731617      2.3577398     -151721.72     -150215.85    
     62100   628.81529     -11876.678      6724.9433      48.731617      2.3577398     -151673.52     -150185.26    
     62200   618.39358      12821.346      6724.9433      48.731617      2.3577398     -151698.56     -150234.97    
     62300   579.34778      70724.101      6724.9433      48.731617      2.3577398     -151710.82     -150339.64    
     62400   601.59682      14885.072      6724.9433      48.731617      2.3577398     -151746.91     -150323.07    
     62500   611.72129     -40249.6        6724.9433      48.731617      2.3577398     -151710.16     -150262.36    
     62600   614.56514      48155.245      6724.9433      48.731617      2.3577398     -151690.22     -150235.69    
     62700   606.12629     -19621.868      6724.9433      48.731617      2.3577398     -151673.88     -150239.32    
     62800   571.4972       17164.54       6724.9433      48.731617      2.3577398     -151625.52     -150272.92    
     62900   580.74455      13094.441      6724.9433      48.731617      2.3577398     -151685.01     -150310.53    
     63000   598.62266      27587.464      6724.9433      48.731617      2.3577398     -151741.84     -150325.05    
     63100   578.12248     -27178.387      6724.9433      48.731617      2.3577398     -151640.6      -150272.32    
     63200   603.96251      73572.578      6724.9433      48.731617      2.3577398     -151622.34     -150192.91    
     63300   611.63439     -19305.812      6724.9433      48.731617      2.3577398     -151638.01     -150190.42    
     63400   601.43736     -28005.419      6724.9433      48.731617      2.3577398     -151667.24     -150243.78    
     63500   574.36809      16823.42       6724.9433      48.731617      2.3577398     -151685.09     -150325.7     
     63600   551.6943       69787.031      6724.9433      48.731617      2.3577398     -151627.74     -150322.01    
     63700   606.87863      26285.627      6724.9433      48.731617      2.3577398     -151698.32     -150261.98    
     63800   620.92022     -5936.888       6724.9433      48.731617      2.3577398     -151708.36     -150238.79    
     63900   588.31145     -11695.694      6724.9433      48.731617      2.3577398     -151655.36     -150262.97    
     64000   572.17939      65733.65       6724.9433      48.731617      2.3577398     -151707.26     -150353.05    
     64100   593.05078     -17187.674      6724.9433      48.731617      2.3577398     -151769.07     -150365.46    
     64200   600.83227      11414.817      6724.9433      48.731617      2.3577398     -151686.2      -150264.17    
     64300   645.63885      47445.18       6724.9433      48.731617      2.3577398     -151746.5      -150218.43    
     64400   602.485        39948.756      6724.9433      48.731617      2.3577398     -151696.87     -150270.93    
     64500   597.93956      38555.143      6724.9433      48.731617      2.3577398     -151727.93     -150312.74    
[...]
    384200   592.36328      6662.7304      6724.9433      48.731617      2.3577398     -151696.18     -150294.19    
    384300   583.64072     -26228.244      6724.9433      48.731617      2.3577398     -151686.13     -150304.79    
    384400   615.16856      47905.83       6724.9433      48.731617      2.3577398     -151749.59     -150293.64    
    384500   607.31645      77876.126      6724.9433      48.731617      2.3577398     -151659.32     -150221.95    
    384600   628.40912     -1676.3117      6724.9433      48.731617      2.3577398     -151649.67     -150162.37    
    384700   626.06316      17996.181      6724.9433      48.731617      2.3577398     -151689.81     -150208.06    
    384800   590.54143      9883.1215      6724.9433      48.731617      2.3577398     -151676.85     -150279.18    
    384900   562.92873     -6232.8439      6724.9433      48.731617      2.3577398     -151625.16     -150292.84    
    385000   604.78189      18062.598      6724.9433      48.731617      2.3577398     -151691.72     -150260.35    
    385100   629.04467      21738.381      6724.9433      48.731617      2.3577398     -151734.94     -150246.14    
    385200   570.19189      21512.356      6724.9433      48.731617      2.3577398     -151661.52     -150312.01    
    385300   577.92464      60229.461      6724.9433      48.731617      2.3577398     -151701.51     -150333.7     
    385400   609.63261      6113.1937      6724.9433      48.731617      2.3577398     -151713.02     -150270.16    
    385500   614.32306     -38186.221      6724.9433      48.731617      2.3577398     -151657.95     -150203.99    
    385600   597.07546      18486.594      6724.9433      48.731617      2.3577398     -151635.66     -150222.53    
    385700   617.05129      61758.938      6724.9433      48.731617      2.3577398     -151714.64     -150254.23    
    385800   614.49226      13953.71       6724.9433      48.731617      2.3577398     -151712.78     -150258.42    
    385900   608.72723      10675.457      6724.9433      48.731617      2.3577398     -151703.69     -150262.97    
    386000   596.98147      11940.017      6724.9433      48.731617      2.3577398     -151681.21     -150268.29    
    386100   584.90198     -631.84525      6724.9433      48.731617      2.3577398     -151676.22     -150291.9     
    386200   587.02695      59990.969      6724.9433      48.731617      2.3577398     -151755.87     -150366.51    
    386300   588.2081      -31364.385      6724.9433      48.731617      2.3577398     -151765.95     -150373.8     
    386400   583.17774      16571.109      6724.9433      48.731617      2.3577398     -151673.26     -150293.02    
    386500   601.70245     -11498.466      6724.9433      48.731617      2.3577398     -151662.71     -150238.62    
    386600   604.73139      25919.071      6724.9433      48.731617      2.3577398     -151668.96     -150237.71    
    386700   600.29673     -1355.2977      6724.9433      48.731617      2.3577398     -151695.07     -150274.31    
    386800   587.12105      55051.49       6724.9433      48.731617      2.3577398     -151699.91     -150310.34    
    386900   608.01172      2539.1919      6724.9433      48.731617      2.3577398     -151747.16     -150308.14    
    387000   604.45765      27689.202      6724.9433      48.731617      2.3577398     -151655.56     -150224.95    
    387100   612.23144      29609.144      6724.9433      48.731617      2.3577398     -151625.79     -150176.79    
    387200   602.6813       9679.9329      6724.9433      48.731617      2.3577398     -151642.61     -150216.21    
    387300   608.45108      24704.689      6724.9433      48.731617      2.3577398     -151735.76     -150295.7     
    387400   591.44248      27364.878      6724.9433      48.731617      2.3577398     -151719.9      -150320.1     
    387500   603.97372     -11151.675      6724.9433      48.731617      2.3577398     -151726.75     -150297.28    
    387600   609.31824     -2064.4764      6724.9433      48.731617      2.3577398     -151726.05     -150283.94    
    387700   600.4513       28170.993      6724.9433      48.731617      2.3577398     -151717.97     -150296.84    
    387800   600.35895      13439.348      6724.9433      48.731617      2.3577398     -151685.63     -150264.72    
    387900   609.42495     -2578.2501      6724.9433      48.731617      2.3577398     -151643.95     -150201.59    
    388000   639.68997      30898.672      6724.9433      48.731617      2.3577398     -151708.04     -150194.04    
    388100   600.31858      50461.845      6724.9433      48.731617      2.3577398     -151661.16     -150240.35    
    388200   602.02525     -19741.212      6724.9433      48.731617      2.3577398     -151736.48     -150311.63    
    388300   564.3786      -26557.057      6724.9433      48.731617      2.3577398     -151691.13     -150355.38    
    388400   602.00611      59695.693      6724.9433      48.731617      2.3577398     -151726.79     -150301.98    
    388500   619.36585      75009.591      6724.9433      48.731617      2.3577398     -151721.66     -150255.77    
    388600   606.18042     -36859.411      6724.9433      48.731617      2.3577398     -151705        -150270.31    
    388700   579.94611      3392.4652      6724.9433      48.731617      2.3577398     -151656.61     -150284.01    
    388800   598.48672      24059.756      6724.9433      48.731617      2.3577398     -151716.81     -150300.33    
    388900   617.09777      1245.3753      6724.9433      48.731617      2.3577398     -151787.04     -150326.52    
    389000   589.54183      53227.572      6724.9433      48.731617      2.3577398     -151702.89     -150307.58    
    389100   610.94238      14893.623      6724.9433      48.731617      2.3577398     -151671.07     -150225.11    
    389200   623.52316      39737.41       6724.9433      48.731617      2.3577398     -151668.3      -150192.57    
    389300   610.73125      10035.814      6724.9433      48.731617      2.3577398     -151650.21     -150204.75    
    389400   568.32882     -19687.259      6724.9433      48.731617      2.3577398     -151662.26     -150317.16    
    389500   591.17053      33199.344      6724.9433      48.731617      2.3577398     -151759.61     -150360.45    
    389600   594.65193      16314.542      6724.9433      48.731617      2.3577398     -151725.52     -150318.12    
    389700   596.80933     -29260.115      6724.9433      48.731617      2.3577398     -151668.46     -150255.95    
    389800   608.87472     -36069.035      6724.9433      48.731617      2.3577398     -151683.27     -150242.21    
    389900   603.76327      33802.517      6724.9433      48.731617      2.3577398     -151695.72     -150266.75    
    390000   590.00258      60513.297      6724.9433      48.731617      2.3577398     -151675.59     -150279.2     
    390100   603.06797      2470.7047      6724.9433      48.731617      2.3577398     -151686.14     -150258.83    
    390200   594.77259      51215.739      6724.9433      48.731617      2.3577398     -151608.61     -150200.93    
    390300   624.46064      61436.793      6724.9433      48.731617      2.3577398     -151671.85     -150193.9     
    390400   591.71174      44760.307      6724.9433      48.731617      2.3577398     -151668.17     -150267.73    
    390500   557.20926     -20920.171      6724.9433      48.731617      2.3577398     -151645.65     -150326.86    
    390600   574.81641     -22783.835      6724.9433      48.731617      2.3577398     -151692.31     -150331.85    
    390700   620.09072      32541.899      6724.9433      48.731617      2.3577398     -151726.64     -150259.03    
    390800   607.40544      28020.812      6724.9433      48.731617      2.3577398     -151613.64     -150176.06    
    390900   622.28697      10788.952      6724.9433      48.731617      2.3577398     -151646.57     -150173.77    
    391000   616.21123      16317.188      6724.9433      48.731617      2.3577398     -151682.47     -150224.04    
    391100   617.2245       1278.1497      6724.9433      48.731617      2.3577398     -151748.03     -150287.21    
    391200   591.4796       1502.626       6724.9433      48.731617      2.3577398     -151732.93     -150333.04    
    391300   580.46922      56625.434      6724.9433      48.731617      2.3577398     -151688.73     -150314.9     
    391400   591.14754      10931.461      6724.9433      48.731617      2.3577398     -151638.87     -150239.76    
    391500   606.1053       27933.677      6724.9433      48.731617      2.3577398     -151579.93     -150145.43    
    391600   630.84873     -12613.435      6724.9433      48.731617      2.3577398     -151666.16     -150173.09    
    391700   591.16106      42125.021      6724.9433      48.731617      2.3577398     -151638.33     -150239.19    
    391800   602.48771     -18007.651      6724.9433      48.731617      2.3577398     -151688.28     -150262.33    
    391900   583.38119     -4403.2759      6724.9433      48.731617      2.3577398     -151671.84     -150291.12    
    392000   612.81609      25446.632      6724.9433      48.731617      2.3577398     -151742.55     -150292.16    
    392100   592.10264      34743.718      6724.9433      48.731617      2.3577398     -151704.16     -150302.8     
    392200   585.42511      31517.003      6724.9433      48.731617      2.3577398     -151659.76     -150274.19    
    392300   592.19924     -1427.676       6724.9433      48.731617      2.3577398     -151622.98     -150221.39    
    392400   597.77038     -1843.2099      6724.9433      48.731617      2.3577398     -151613.14     -150198.36    
    392500   596.98832      43313.423      6724.9433      48.731617      2.3577398     -151665.7      -150252.77    
    392600   555.0915       23075.208      6724.9433      48.731617      2.3577398     -151646.88     -150333.11    
    392700   585.90911      35982.748      6724.9433      48.731617      2.3577398     -151699.56     -150312.85    
    392800   597.40783     -4662.4418      6724.9433      48.731617      2.3577398     -151662.07     -150248.15    
    392900   615.15642      23212.344      6724.9433      48.731617      2.3577398     -151660.85     -150204.92    
    393000   606.73942     -46929.859      6724.9433      48.731617      2.3577398     -151669.04     -150233.03    
    393100   601.50985      33104.924      6724.9433      48.731617      2.3577398     -151681.19     -150257.55    
    393200   591.94871      70585.381      6724.9433      48.731617      2.3577398     -151685.83     -150284.82    
    393300   584.80091     -20924.646      6724.9433      48.731617      2.3577398     -151692.59     -150308.51    
    393400   578.30546      33391.337      6724.9433      48.731617      2.3577398     -151696.47     -150327.76    
    393500   585.41387      1098.0327      6724.9433      48.731617      2.3577398     -151669.34     -150283.8     
    393600   613.19813      26214.714      6724.9433      48.731617      2.3577398     -151661.55     -150210.25    
    393700   631.93298     -1425.2666      6724.9433      48.731617      2.3577398     -151683.85     -150188.21    
    393800   599.25576      37817.063      6724.9433      48.731617      2.3577398     -151677.24     -150258.94    
    393900   572.61199      75226.018      6724.9433      48.731617      2.3577398     -151698.01     -150342.77    
    394000   587.5608      -2737.5873      6724.9433      48.731617      2.3577398     -151709.02     -150318.4     
    394100   600.25919      30496.363      6724.9433      48.731617      2.3577398     -151667.32     -150246.65    
    394200   615.62723      9949.3123      6724.9433      48.731617      2.3577398     -151682.52     -150225.48    
    394300   612.41853      3683.5861      6724.9433      48.731617      2.3577398     -151690.88     -150241.43    
    394400   617.38415     -30752.108      6724.9433      48.731617      2.3577398     -151715.55     -150254.34    
    394500   589.65696      28597.457      6724.9433      48.731617      2.3577398     -151664.18     -150268.6     
    394600   596.83616     -24049.865      6724.9433      48.731617      2.3577398     -151684.69     -150272.12    
    394700   600.63841      20616.823      6724.9433      48.731617      2.3577398     -151683.09     -150261.52    
    394800   595.66548      62434.11       6724.9433      48.731617      2.3577398     -151659.26     -150249.46    
    394900   625.45615      30802.911      6724.9433      48.731617      2.3577398     -151730.24     -150249.93    
    395000   607.43815     -6703.2272      6724.9433      48.731617      2.3577398     -151713.85     -150276.19    
    395100   582.45531      573.16416      6724.9433      48.731617      2.3577398     -151693.42     -150314.88    
    395200   571.39821      38755.401      6724.9433      48.731617      2.3577398     -151683.24     -150330.88    
    395300   580.95807      23295.301      6724.9433      48.731617      2.3577398     -151665.37     -150290.38    
    395400   600.9443       13231.062      6724.9433      48.731617      2.3577398     -151629.78     -150207.49    
    395500   627.54899      57111.397      6724.9433      48.731617      2.3577398     -151686.67     -150201.41    
    395600   595.9369       8359.879       6724.9433      48.731617      2.3577398     -151681.99     -150271.55    
    395700   573.45767      22631.068      6724.9433      48.731617      2.3577398     -151722.34     -150365.1     
    395800   597.50646     -6241.989       6724.9433      48.731617      2.3577398     -151764.7      -150350.55    
    395900   617.03733      22816.059      6724.9433      48.731617      2.3577398     -151768.06     -150307.68    
    396000   632.24698      46403.404      6724.9433      48.731617      2.3577398     -151735.98     -150239.6     
    396100   590.74797      11377.681      6724.9433      48.731617      2.3577398     -151616.43     -150218.27    
    396200   624.82903      18323.333      6724.9433      48.731617      2.3577398     -151699.24     -150220.41    
    396300   577.77675     -12543.926      6724.9433      48.731617      2.3577398     -151613.98     -150246.52    
    396400   616.2651       38141.947      6724.9433      48.731617      2.3577398     -151733.92     -150275.37    
    396500   612.66961     -4314.7914      6724.9433      48.731617      2.3577398     -151776.05     -150326.01    
    396600   583.2799       5121.6525      6724.9433      48.731617      2.3577398     -151763.66     -150383.17    
    396700   571.64473      136884.24      6724.9433      48.731617      2.3577398     -151754.28     -150401.33    
    396800   597.87164     -17699.468      6724.9433      48.731617      2.3577398     -151722.76     -150307.73    
    396900   628.38808     -16741.845      6724.9433      48.731617      2.3577398     -151719.47     -150232.22    
    397000   634.09069      75869.605      6724.9433      48.731617      2.3577398     -151713.43     -150212.69    
    397100   603.90772      8747.3749      6724.9433      48.731617      2.3577398     -151679.58     -150250.28    
    397200   588.68157      56993.832      6724.9433      48.731617      2.3577398     -151729.02     -150335.75    
    397300   590.48634      5026.2122      6724.9433      48.731617      2.3577398     -151774.58     -150377.04    
    397400   582.45498     -16538.597      6724.9433      48.731617      2.3577398     -151726.74     -150348.21    
    397500   589.51216      54914.339      6724.9433      48.731617      2.3577398     -151704.63     -150309.39    
    397600   606.15178      31034.283      6724.9433      48.731617      2.3577398     -151712.89     -150278.27    
    397700   596.05575      22094.039      6724.9433      48.731617      2.3577398     -151642.15     -150231.43    
    397800   601.39528     -14962.609      6724.9433      48.731617      2.3577398     -151642.71     -150219.35    
    397900   580.10675      35274.517      6724.9433      48.731617      2.3577398     -151674.51     -150301.53    
    398000   611.5602       1572.9329      6724.9433      48.731617      2.3577398     -151803.68     -150356.26    
    398100   605.63904      15754.559      6724.9433      48.731617      2.3577398     -151761.33     -150327.92    
    398200   610.39972     -12175.842      6724.9433      48.731617      2.3577398     -151686.13     -150241.46    
    398300   628.86511      83251.164      6724.9433      48.731617      2.3577398     -151695.07     -150206.7     
    398400   592.87713     -29834.119      6724.9433      48.731617      2.3577398     -151644.7      -150241.5     
    398500   609.61525     -16717.505      6724.9433      48.731617      2.3577398     -151703.68     -150260.86    
    398600   581.09362     -2511.4523      6724.9433      48.731617      2.3577398     -151689.71     -150314.4     
    398700   558.93816     -16564.19       6724.9433      48.731617      2.3577398     -151737.41     -150414.54    
    398800   585.82605      3195.2553      6724.9433      48.731617      2.3577398     -151788.68     -150402.17    
    398900   594.45269      6273.7803      6724.9433      48.731617      2.3577398     -151739.65     -150332.72    
    399000   600.14184     -3193.5088      6724.9433      48.731617      2.3577398     -151711.19     -150290.8     
    399100   608.38402      16918.157      6724.9433      48.731617      2.3577398     -151679.62     -150239.72    
    399200   625.27318      40092.908      6724.9433      48.731617      2.3577398     -151701.26     -150221.39    
    399300   620.6132       41503.189      6724.9433      48.731617      2.3577398     -151755.5      -150286.65    
    399400   582.84674      53077.583      6724.9433      48.731617      2.3577398     -151757.34     -150377.88    
    399500   581.62888      10239.641      6724.9433      48.731617      2.3577398     -151725.43     -150348.86    
    399600   610.57293     -11577.817      6724.9433      48.731617      2.3577398     -151725.85     -150280.77    
    399700   605.55632      47969.615      6724.9433      48.731617      2.3577398     -151688.83     -150255.62    
    399800   590.47672      13973.098      6724.9433      48.731617      2.3577398     -151642.14     -150244.62    
    399900   595.63595      13090.808      6724.9433      48.731617      2.3577398     -151644.7      -150234.97    
    400000   604.64887      7292.1034      6724.9433      48.731617      2.3577398     -151695.29     -150264.23    
    400011   584.9204       149.65154      6724.9433      48.731617      2.3577398     -151656.12     -150271.75    
Loop time of 15447.6 on 64 procs for 400000 steps with 795 atoms

Performance: 0.559 ns/day, 42.910 hours/ns, 25.894 timesteps/s
99.6% CPU use with 64 MPI tasks x 1 OpenMP threads

MPI task timing breakdown:
Section |  min time  |  avg time  |  max time  |%varavg| %total
---------------------------------------------------------------
Pair    | 8617.7     | 11078      | 13977      |1520.9 | 71.71
Neigh   | 79.658     | 103.94     | 132.17     | 137.1 |  0.67
Comm    | 175.91     | 2861.4     | 5290.8     |2742.3 | 18.52
Output  | 0.50028    | 0.62844    | 0.90506    |   9.9 |  0.00
Modify  | 1163.4     | 1400.9     | 2568.9     | 763.3 |  9.07
Other   |            | 2.8        |            |       |  0.02

Nlocal:        12.4219 ave          16 max           8 min
Histogram: 1 3 10 7 0 15 5 9 12 2
Nghost:        2180.92 ave        2510 max        1889 min
Histogram: 4 9 4 8 11 12 2 5 5 4
Neighs:         6880.5 ave        9121 max        3981 min
Histogram: 5 5 5 4 10 4 7 8 4 12

Total # of neighbors = 440352
Ave neighs/atom = 553.90189
Neighbor list builds = 9645
Dangerous builds = 0

write_data graphene_single_layer_ReaxFF_750_C_temp_600K.data ### MODIFY FILE NAME ###
System init for write_data ...
Total wall time: 4:17:30
