
# System definition
read_data graphene_single_layer_x-45_y-45_795_C.data ### MODIFY FILE NAME ###
Reading data file ...
  orthogonal box = (-1.4464652 -1.4423034 -1.42) to (47.285152 47.149102 1.42)
  8 by 8 by 1 MPI processor grid
  reading atoms ...
  795 atoms
  reading velocities ...
  795 velocities
  read_data CPU = 0.064 seconds

pair_style reax/c NULL
pair_coeff * * ffield.reax.cho C
Reading potential file ffield.reax.cho with DATE: 2011-02-18
fix qeq_reax all qeq/reax 1 0.0 10.0 1.0e-6 reax/c


# Minimization
timestep 0.25
min_style cg
thermo 100
thermo_style custom step temp press vol lx density pe etotal
dump 2 all custom 1000 graphene_single_layer_ReaxFF_795_C_temp_900K.lammpstrj id type x y z ### MODIFY FILE NAME ###
minimize 1.0e-6 1.0e-6 100 1000

CITE-CITE-CITE-CITE-CITE-CITE-CITE-CITE-CITE-CITE-CITE-CITE-CITE

Your simulation uses code contributions which should be cited:

- pair reaxff command:

@Article{Aktulga12,
 author = {H. M. Aktulga, J. C. Fogarty, S. A. Pandit, A. Y. Grama},
 title = {Parallel reactive molecular dynamics: Numerical methods and algorithmic techniques},
 journal = {Parallel Computing},
 year =    2012,
 volume =  38,
 pages =   {245--259}
}

- fix qeq/reaxff command:

@Article{Aktulga12,
 author = {H. M. Aktulga, J. C. Fogarty, S. A. Pandit, A. Y. Grama},
 title = {Parallel reactive molecular dynamics: Numerical methods and algorithmic techniques},
 journal = {Parallel Computing},
 year =    2012,
 volume =  38,
 pages =   {245--259}
}

CITE-CITE-CITE-CITE-CITE-CITE-CITE-CITE-CITE-CITE-CITE-CITE-CITE

WARNING: Using 'neigh_modify every 1 delay 0 check yes' setting during minimization (src/min.cpp:187)
Neighbor list info ...
  update every 1 steps, delay 0 steps, check yes
  max neighbors/atom: 10000, page size: 100000
  master list distance cutoff = 10.4
  ghost atom cutoff = 10.4
  binsize = 5.2, bins = 10 10 1
  2 neighbor lists, perpetual/occasional/extra = 2 0 0
  (1) pair reax/c, perpetual
      attributes: half, newton off, ghost
      pair build: half/bin/newtoff/ghost
      stencil: full/ghost/bin/3d
      bin: standard
  (2) fix qeq/reax, perpetual, copy from (1)
      attributes: half, newton off
      pair build: copy
      stencil: none
      bin: none
Per MPI rank memory allocation (min/avg/max) = 36.37 | 41.41 | 47.38 Mbytes
   Step          Temp          Press          Volume           Lx          Density         PotEng         TotEng    
         0   923            34054.396      6724.9433      48.731617      2.3577398     -151766.67     -149582.14    
        11   923            35396.792      6724.9433      48.731617      2.3577398     -151904.55     -149720.03    
Loop time of 2.22555 on 64 procs for 11 steps with 795 atoms

99.1% CPU use with 64 MPI tasks x 1 OpenMP threads

Minimization stats:
  Stopping criterion = energy tolerance
  Energy initial, next-to-last, final = 
     -151766.666472543  -151904.508881892  -151904.547898656
  Force two-norm initial, final = 279.94165 356.09863
  Force max component initial, final = 137.99181 55.448555
  Final line search alpha, max atom move = 0.00038853166 0.021543519
  Iterations, force evaluations = 11 32

MPI task timing breakdown:
Section |  min time  |  avg time  |  max time  |%varavg| %total
---------------------------------------------------------------
Pair    | 0.81483    | 1.2567     | 1.7124     |  18.1 | 56.47
Neigh   | 0.011242   | 0.018646   | 0.027379   |   2.5 |  0.84
Comm    | 0.16575    | 0.51962    | 0.97779    |  25.6 | 23.35
Output  | 0          | 0          | 0          |   0.0 |  0.00
Modify  | 0.30746    | 0.31634    | 0.32381    |   0.6 | 14.21
Other   |            | 0.1143     |            |       |  5.13

Nlocal:        12.4219 ave          15 max          10 min
Histogram: 15 0 0 0 22 0 12 0 0 15
Nghost:        2194.12 ave        2559 max        1869 min
Histogram: 2 8 9 4 12 12 5 4 6 2
Neighs:        6807.34 ave        8856 max        4476 min
Histogram: 4 8 3 7 7 13 5 2 0 15

Total # of neighbors = 435670
Ave neighs/atom = 548.01258
Neighbor list builds = 1
Dangerous builds = 0

fix 1 all nvt temp 900.0 900.0 $(100.0*dt)  ### MODIFY INIT TEMP, FINAL TEMP ###
fix 1 all nvt temp 900.0 900.0 25  
run 400000
Per MPI rank memory allocation (min/avg/max) = 35.25 | 40.29 | 46.26 Mbytes
   Step          Temp          Press          Volume           Lx          Density         PotEng         TotEng    
        11   923            35396.792      6724.9433      48.731617      2.3577398     -151904.55     -149720.03    
       100   594.79649      30540.547      6724.9433      48.731617      2.3577398     -150953.16     -149545.42    
       200   599.27463      186814.92      6724.9433      48.731617      2.3577398     -150626.16     -149207.82    
       300   813.73901     -22576.993      6724.9433      48.731617      2.3577398     -150734.48     -148808.56    
       400   956.05131     -62861.17       6724.9433      48.731617      2.3577398     -150694.46     -148431.71    
       500   922.67238      46419.911      6724.9433      48.731617      2.3577398     -150398.6      -148214.85    
       600   973.09624      83942.019      6724.9433      48.731617      2.3577398     -150609.42     -148306.33    
       700   907.99574     -5451.899       6724.9433      48.731617      2.3577398     -150687.3      -148538.29    
       800   875.58287      70321.55       6724.9433      48.731617      2.3577398     -150771.55     -148699.25    
       900   864.64304      44250.543      6724.9433      48.731617      2.3577398     -150805.56     -148759.16    
      1000   876.43719      27854.258      6724.9433      48.731617      2.3577398     -150784.23     -148709.92    
      1100   917.78111     -1128.3514      6724.9433      48.731617      2.3577398     -150756.73     -148584.56    
      1200   903.28063      6553.9632      6724.9433      48.731617      2.3577398     -150647.42     -148509.57    
      1300   912.0987       34536.046      6724.9433      48.731617      2.3577398     -150684.68     -148525.96    
      1400   883.57354      14650.41       6724.9433      48.731617      2.3577398     -150739.01     -148647.8     
      1500   863.52805      31897.741      6724.9433      48.731617      2.3577398     -150767.01     -148723.25    
      1600   908.37103      4504.2282      6724.9433      48.731617      2.3577398     -150859.01     -148709.11    
      1700   939.92207      29897.999      6724.9433      48.731617      2.3577398     -150905.51     -148680.94    
      1800   911.65191      7089.9121      6724.9433      48.731617      2.3577398     -150787.48     -148629.82    
      1900   907.68085      62070.585      6724.9433      48.731617      2.3577398     -150760.33     -148612.07    
      2000   890.64098      763.24335      6724.9433      48.731617      2.3577398     -150759.65     -148651.71    
      2100   910.15903      21445.843      6724.9433      48.731617      2.3577398     -150870.49     -148716.36    
      2200   912.1209       32391.662      6724.9433      48.731617      2.3577398     -150927.56     -148768.79    
      2300   924.83308      54004.724      6724.9433      48.731617      2.3577398     -150915.49     -148726.63    
      2400   914.55069     -7007.7405      6724.9433      48.731617      2.3577398     -150807.32     -148642.79    
      2500   898.778       -23456.119      6724.9433      48.731617      2.3577398     -150697.44     -148570.24    
      2600   922.77688      25075.099      6724.9433      48.731617      2.3577398     -150806.15     -148622.16    
      2700   867.46421      69606.83       6724.9433      48.731617      2.3577398     -150853.48     -148800.4     
      2800   911.11733      87735.873      6724.9433      48.731617      2.3577398     -150934.76     -148778.36    
      2900   898.97596     -30204.593      6724.9433      48.731617      2.3577398     -150831.79     -148704.12    
      3000   943.99918      42561.839      6724.9433      48.731617      2.3577398     -150836.38     -148602.15    
      3100   922.20595      17697.753      6724.9433      48.731617      2.3577398     -150810.54     -148627.9     
      3200   897.03372      29096.169      6724.9433      48.731617      2.3577398     -150796.57     -148673.51    
      3300   906.22768      35277.323      6724.9433      48.731617      2.3577398     -150824.99     -148680.17    
      3400   912.23906      48165.315      6724.9433      48.731617      2.3577398     -150849.6      -148690.55    
      3500   896.07339      34452.537      6724.9433      48.731617      2.3577398     -150801.17     -148680.37    
      3600   910.18124      68402.105      6724.9433      48.731617      2.3577398     -150770.62     -148616.43    
      3700   946.86666     -19135.05       6724.9433      48.731617      2.3577398     -150771.4      -148530.4     
      3800   947.12148      35821.679      6724.9433      48.731617      2.3577398     -150842.65     -148601.03    
      3900   869.31975      38574.655      6724.9433      48.731617      2.3577398     -150806.77     -148749.29    
      4000   863.81337      13312.016      6724.9433      48.731617      2.3577398     -150793.72     -148749.28    
      4100   892.44267      3099.7243      6724.9433      48.731617      2.3577398     -150810.12     -148697.92    
      4200   914.05888      40450.51       6724.9433      48.731617      2.3577398     -150806.03     -148642.67    
      4300   975.97882      54090.944      6724.9433      48.731617      2.3577398     -150868.85     -148558.94    
      4400   918.93474      61533.032      6724.9433      48.731617      2.3577398     -150674.17     -148499.27    
      4500   889.39972      30378.899      6724.9433      48.731617      2.3577398     -150633.78     -148528.78    
      4600   908.2116       77342.813      6724.9433      48.731617      2.3577398     -150843.26     -148693.74    
      4700   891.31197     -5108.2468      6724.9433      48.731617      2.3577398     -150841.4      -148731.88    
      4800   874.79338      24820.341      6724.9433      48.731617      2.3577398     -150782.94     -148712.51    
      4900   884.00479     -30258.519      6724.9433      48.731617      2.3577398     -150792.76     -148700.53    
      5000   892.038        24654.907      6724.9433      48.731617      2.3577398     -150819.74     -148708.49    
      5100   880.26607      18487.489      6724.9433      48.731617      2.3577398     -150818.7      -148735.32    
      5200   911.29545      55370.261      6724.9433      48.731617      2.3577398     -150845.51     -148688.69    
      5300   928.64935      1218.8813      6724.9433      48.731617      2.3577398     -150804.22     -148606.32    
      5400   940.46319      44117.346      6724.9433      48.731617      2.3577398     -150799.48     -148573.62    
      5500   897.98837     -38235.521      6724.9433      48.731617      2.3577398     -150830.53     -148705.2     
      5600   912.41178      29345.338      6724.9433      48.731617      2.3577398     -150936.35     -148776.89    
      5700   865.52277      50400.355      6724.9433      48.731617      2.3577398     -150817.65     -148769.17    
      5800   915.94693      72177.741      6724.9433      48.731617      2.3577398     -150805.47     -148637.64    
      5900   881.31133     -10971.709      6724.9433      48.731617      2.3577398     -150691.29     -148605.44    
      6000   890.68212     -3122.4546      6724.9433      48.731617      2.3577398     -150777.2      -148669.16    
      6100   875.96666      45160.902      6724.9433      48.731617      2.3577398     -150802.63     -148729.42    
      6200   885.98955      40049.467      6724.9433      48.731617      2.3577398     -150889.27     -148792.34    
      6300   876.12735      20821.005      6724.9433      48.731617      2.3577398     -150881.33     -148807.74    
      6400   886.0557       3625.1728      6724.9433      48.731617      2.3577398     -150734.13     -148637.04    
      6500   920.37828     -48409.542      6724.9433      48.731617      2.3577398     -150743.23     -148564.91    
      6600   914.63391      72445.273      6724.9433      48.731617      2.3577398     -150802.72     -148638       
      6700   844.28921      1194.026       6724.9433      48.731617      2.3577398     -150746.47     -148748.24    
      6800   887.88809      44724.969      6724.9433      48.731617      2.3577398     -150850.98     -148749.56    
      6900   872.93059     -20399.857      6724.9433      48.731617      2.3577398     -150739.6      -148673.58    
      7000   904.90439      7637.2841      6724.9433      48.731617      2.3577398     -150794.13     -148652.43    
      7100   884.65058     -1909.7463      6724.9433      48.731617      2.3577398     -150781.79     -148688.03    
      7200   904.69648      14848.972      6724.9433      48.731617      2.3577398     -150889.92     -148748.72    
      7300   879.16002      81375.981      6724.9433      48.731617      2.3577398     -150873.4      -148792.64    
      7400   921.76608     -18605.047      6724.9433      48.731617      2.3577398     -150939.56     -148757.95    
      7500   926.05805      65478.163      6724.9433      48.731617      2.3577398     -150816.01     -148624.25    
      7600   895.27513     -11164.828      6724.9433      48.731617      2.3577398     -150696.31     -148577.41    
      7700   918.36275      26287.492      6724.9433      48.731617      2.3577398     -150847.13     -148673.58    
      7800   912.92103      33806.037      6724.9433      48.731617      2.3577398     -150943.2      -148782.53    
      7900   900.18389      70188.826      6724.9433      48.731617      2.3577398     -150904.14     -148773.62    
      8000   910.42751     -17664.27       6724.9433      48.731617      2.3577398     -150859.99     -148705.23    
      8100   937.95163      66063.722      6724.9433      48.731617      2.3577398     -150819.1      -148599.19    
      8200   947.90262      46147.072      6724.9433      48.731617      2.3577398     -150740.91     -148497.45    
      8300   980.06486      2241.0645      6724.9433      48.731617      2.3577398     -150830.92     -148511.33    
      8400   910.18529      49184.897      6724.9433      48.731617      2.3577398     -150850.26     -148696.07    
      8500   881.97156      52959.517      6724.9433      48.731617      2.3577398     -150848.29     -148760.87    
      8600   863.4813      -20077.782      6724.9433      48.731617      2.3577398     -150779.39     -148735.73    
      8700   898.72348     -23317.718      6724.9433      48.731617      2.3577398     -150773.86     -148646.79    
      8800   937.20017      60677.419      6724.9433      48.731617      2.3577398     -150796.16     -148578.03    
      8900   900.61376      12328.745      6724.9433      48.731617      2.3577398     -150734.28     -148602.74    
      9000   912.76829      48355.666      6724.9433      48.731617      2.3577398     -150913.98     -148753.67    
      9100   880.68214      6190.2311      6724.9433      48.731617      2.3577398     -150894.27     -148809.9     
      9200   908.22043     -525.40579      6724.9433      48.731617      2.3577398     -150904.98     -148755.44    
      9300   925.16299      22716.063      6724.9433      48.731617      2.3577398     -150842.88     -148653.24    
      9400   910.48078      30018.247      6724.9433      48.731617      2.3577398     -150761.62     -148606.72    
      9500   927.53644      49140.831      6724.9433      48.731617      2.3577398     -150796.04     -148600.78    
      9600   925.11297      49607.756      6724.9433      48.731617      2.3577398     -150880.16     -148690.63    
      9700   888.42444      19288.102      6724.9433      48.731617      2.3577398     -150882.92     -148780.23    
      9800   874.30605      28291.463      6724.9433      48.731617      2.3577398     -150871.91     -148802.63    
      9900   886.51057      81441.154      6724.9433      48.731617      2.3577398     -150834.1      -148735.94    
     10000   927.11466      5034.2074      6724.9433      48.731617      2.3577398     -150770.65     -148576.39    
     10100   944.43215      13592.507      6724.9433      48.731617      2.3577398     -150810.64     -148575.39    
     10200   913.26841      40513.808      6724.9433      48.731617      2.3577398     -150828.26     -148666.77    
     10300   879.22097      21954.47       6724.9433      48.731617      2.3577398     -150802.57     -148721.67    
     10400   919.68576      51725.494      6724.9433      48.731617      2.3577398     -150884.81     -148708.13    
     10500   901.43821      49179.326      6724.9433      48.731617      2.3577398     -150850.31     -148716.81    
     10600   878.1367       31263.91       6724.9433      48.731617      2.3577398     -150772.47     -148694.13    
     10700   891.89658      36699.474      6724.9433      48.731617      2.3577398     -150689.41     -148578.5     
     10800   919.25262      51448.258      6724.9433      48.731617      2.3577398     -150703.77     -148528.11    
     10900   937.37766      53725.979      6724.9433      48.731617      2.3577398     -150837.66     -148619.11    
     11000   900.45627      52032.027      6724.9433      48.731617      2.3577398     -150866.64     -148735.47    
     11100   850.93696     -65062.121      6724.9433      48.731617      2.3577398     -150770.76     -148756.8     
     11200   882.23994      54621.323      6724.9433      48.731617      2.3577398     -150825.02     -148736.97    
     11300   912.78756      26820.145      6724.9433      48.731617      2.3577398     -150853.23     -148692.88    
     11400   872.1596       27471.777      6724.9433      48.731617      2.3577398     -150644.97     -148580.78    
     11500   936.54853      77232.449      6724.9433      48.731617      2.3577398     -150745.22     -148528.64    
     11600   924.96625      60166.939      6724.9433      48.731617      2.3577398     -150830.21     -148641.03    
     11700   882.15858     -32776.509      6724.9433      48.731617      2.3577398     -150847.76     -148759.9     
     11800   907.43446      61674.861      6724.9433      48.731617      2.3577398     -150891.95     -148744.27    
     11900   889.66232      23444.669      6724.9433      48.731617      2.3577398     -150851.05     -148745.43    
     12000   879.48679      40571.863      6724.9433      48.731617      2.3577398     -150900.4      -148818.87    
     12100   860.01784     -22310.525      6724.9433      48.731617      2.3577398     -150935.07     -148899.61    
     12200   885.12358     -28357.426      6724.9433      48.731617      2.3577398     -150930.07     -148835.19    
     12300   893.76482      33147.201      6724.9433      48.731617      2.3577398     -150792.16     -148676.83    
     12400   880.98997      45959.667      6724.9433      48.731617      2.3577398     -150722.19     -148637.1     
     12500   905.3903       15844.588      6724.9433      48.731617      2.3577398     -150796.18     -148653.34    
     12600   893.57964     -8357.9847      6724.9433      48.731617      2.3577398     -150879.9      -148765.01    
     12700   861.01495      24306.55       6724.9433      48.731617      2.3577398     -150886.55     -148848.73    
     12800   898.67894      36332.094      6724.9433      48.731617      2.3577398     -150921.65     -148794.69    
     12900   908.02428      50085.498      6724.9433      48.731617      2.3577398     -150746.35     -148597.27    
     13000   906.18384      36265.24       6724.9433      48.731617      2.3577398     -150731.7      -148586.98    
     13100   935.1866       4029.2096      6724.9433      48.731617      2.3577398     -150873.08     -148659.71    
     13200   904.83089      59345.04       6724.9433      48.731617      2.3577398     -150914.97     -148773.45    
     13300   887.04407      53959.319      6724.9433      48.731617      2.3577398     -150876.63     -148777.21    
     13400   890.40255      32835.859      6724.9433      48.731617      2.3577398     -150808.26     -148700.89    
     13500   924.47057     -17597.448      6724.9433      48.731617      2.3577398     -150729.84     -148541.84    
     13600   943.86598     -15660.449      6724.9433      48.731617      2.3577398     -150731.22     -148497.31    
     13700   914.41149     -33688.323      6724.9433      48.731617      2.3577398     -150744.28     -148580.08    
     13800   903.45547     -11572.808      6724.9433      48.731617      2.3577398     -150811.19     -148672.92    
     13900   911.67828      64348.525      6724.9433      48.731617      2.3577398     -150864.57     -148706.84    
     14000   877.44188      68699.572      6724.9433      48.731617      2.3577398     -150816.09     -148739.39    
     14100   867.94445      6779.1747      6724.9433      48.731617      2.3577398     -150828.08     -148773.86    
     14200   910.01775      6094.4147      6724.9433      48.731617      2.3577398     -150866.08     -148712.29    
     14300   879.96474      19029.099      6724.9433      48.731617      2.3577398     -150722.85     -148640.18    
     14400   937.21494      51392.808      6724.9433      48.731617      2.3577398     -150791.37     -148573.21    
     14500   917.48106      49575.318      6724.9433      48.731617      2.3577398     -150726.99     -148555.53    
     14600   905.23647     -6387.2091      6724.9433      48.731617      2.3577398     -150783.29     -148640.81    
     14700   908.22524     -52425.263      6724.9433      48.731617      2.3577398     -150921.51     -148771.96    
     14800   907.14483      12918.018      6724.9433      48.731617      2.3577398     -150940.89     -148793.9     
     14900   908.76611      68183.457      6724.9433      48.731617      2.3577398     -150868.22     -148717.39    
     15000   933.12084      42409.408      6724.9433      48.731617      2.3577398     -150810.63     -148602.15    
     15100   881.1305       23281.617      6724.9433      48.731617      2.3577398     -150684.59     -148599.16    
     15200   870.56616      45076.359      6724.9433      48.731617      2.3577398     -150762.93     -148702.5     
     15300   857.63844      30837.264      6724.9433      48.731617      2.3577398     -150833.07     -148803.24    
     15400   851.65748     -2241.493       6724.9433      48.731617      2.3577398     -150832.51     -148816.83    
     15500   931.16149      17576.661      6724.9433      48.731617      2.3577398     -150906.32     -148702.48    
     15600   918.40382      48393.971      6724.9433      48.731617      2.3577398     -150789.5      -148615.86    
     15700   886.47345      17319.389      6724.9433      48.731617      2.3577398     -150695.26     -148597.19    
     15800   931.95309      55890.183      6724.9433      48.731617      2.3577398     -150872.34     -148666.63    
     15900   914.00284      12809.098      6724.9433      48.731617      2.3577398     -150866.07     -148702.85    
     16000   910.0372       43172.822      6724.9433      48.731617      2.3577398     -150865.33     -148711.49    
     16100   882.53114      51475.583      6724.9433      48.731617      2.3577398     -150837.88     -148749.13    
     16200   877.22412      58478.712      6724.9433      48.731617      2.3577398     -150904.72     -148828.53    
     16300   889.82047      55825.513      6724.9433      48.731617      2.3577398     -150947.19     -148841.2     
     16400   897.669        13215.496      6724.9433      48.731617      2.3577398     -150878.99     -148754.42    
     16500   929.02694      35069.127      6724.9433      48.731617      2.3577398     -150825.99     -148627.21    
     16600   908.08083      41988.523      6724.9433      48.731617      2.3577398     -150785.48     -148636.27    
     16700   903.48859      80273.668      6724.9433      48.731617      2.3577398     -150851.67     -148713.33    
     16800   906.98522      14976.504      6724.9433      48.731617      2.3577398     -150976.86     -148830.24    
     16900   880.3519       900.26493      6724.9433      48.731617      2.3577398     -151050.15     -148966.57    
     17000   856.99781      39406.763      6724.9433      48.731617      2.3577398     -151086.62     -149058.3     
     17100   890.31173      72317.509      6724.9433      48.731617      2.3577398     -150988.48     -148881.32    
     17200   925.6578       25825.965      6724.9433      48.731617      2.3577398     -150941.47     -148750.65    
     17300   892.91383      8706.79        6724.9433      48.731617      2.3577398     -150751.08     -148637.77    
     17400   900.27905      5634.5608      6724.9433      48.731617      2.3577398     -150739.75     -148609.01    
     17500   944.79112     -5128.7397      6724.9433      48.731617      2.3577398     -150937.81     -148701.71    
     17600   910.8665       22428.808      6724.9433      48.731617      2.3577398     -150966.75     -148810.95    
     17700   861.9652      -2521.1045      6724.9433      48.731617      2.3577398     -150851.64     -148811.57    
     17800   890.17056      23568.708      6724.9433      48.731617      2.3577398     -150835.3      -148728.47    
     17900   912.42192      44070.144      6724.9433      48.731617      2.3577398     -150817.9      -148658.41    
     18000   945.0536      -3608.2499      6724.9433      48.731617      2.3577398     -150871        -148634.28    
     18100   949.20358      19243.887      6724.9433      48.731617      2.3577398     -150954.04     -148707.5     
     18200   857.24765      19939.995      6724.9433      48.731617      2.3577398     -150872.3      -148843.4     
     18300   898.56816      80732.19       6724.9433      48.731617      2.3577398     -150956.97     -148830.27    
     18400   906.96574      65536.981      6724.9433      48.731617      2.3577398     -150855.6      -148709.03    
     18500   902.87653      10486.936      6724.9433      48.731617      2.3577398     -150768.2      -148631.31    
     18600   875.26454     -40007.321      6724.9433      48.731617      2.3577398     -150736.65     -148665.11    
     18700   874.17577      58141.472      6724.9433      48.731617      2.3577398     -150861.84     -148792.87    
     18800   915.40081      66797.69       6724.9433      48.731617      2.3577398     -150997.87     -148831.34    
     18900   876.06825      68858.911      6724.9433      48.731617      2.3577398     -150877.25     -148803.81    
     19000   903.00652      27505.132      6724.9433      48.731617      2.3577398     -150858.65     -148721.45    
     19100   900.43627     -888.28938      6724.9433      48.731617      2.3577398     -150832.89     -148701.78    
     19200   893.40144      28563.686      6724.9433      48.731617      2.3577398     -150811.37     -148696.9     
     19300   896.2392       19373.261      6724.9433      48.731617      2.3577398     -150822.34     -148701.16    
     19400   935.12053      20220.397      6724.9433      48.731617      2.3577398     -150863.97     -148650.76    
     19500   945.59177      53657.457      6724.9433      48.731617      2.3577398     -150914.15     -148676.16    
     19600   866.06117     -19443.423      6724.9433      48.731617      2.3577398     -150846.75     -148796.99    
     19700   879.42075      48063.49       6724.9433      48.731617      2.3577398     -150925.56     -148844.18    
     19800   903.65034      37786.871      6724.9433      48.731617      2.3577398     -150944.4      -148805.68    
     19900   907.79507      66341.428      6724.9433      48.731617      2.3577398     -150830.59     -148682.06    
     20000   889.90772      4540.8457      6724.9433      48.731617      2.3577398     -150754.2      -148648       
     20100   874.13125      22870.795      6724.9433      48.731617      2.3577398     -150803.53     -148734.67    
     20200   862.48176      56528.971      6724.9433      48.731617      2.3577398     -150929.64     -148888.35    
     20300   884.15337      28103.397      6724.9433      48.731617      2.3577398     -150968.89     -148876.31    
     20400   937.45922      3531.579       6724.9433      48.731617      2.3577398     -151003.04     -148784.3     
     20500   902.0764       54434.692      6724.9433      48.731617      2.3577398     -150847.89     -148712.89    
     20600   903.88707      77623.452      6724.9433      48.731617      2.3577398     -150798.2      -148658.91    
     20700   947.49853      75995.951      6724.9433      48.731617      2.3577398     -150795.02     -148552.51    
     20800   924.241        12646.129      6724.9433      48.731617      2.3577398     -150685.86     -148498.4     
     20900   909.96337     -6237.8367      6724.9433      48.731617      2.3577398     -150852.99     -148699.32    
     21000   893.52269      50650.82       6724.9433      48.731617      2.3577398     -150890.5      -148775.74    
     21100   887.67605      88466.688      6724.9433      48.731617      2.3577398     -150908.77     -148807.85    
     21200   888.91203      1211.2811      6724.9433      48.731617      2.3577398     -150863.3      -148759.46    
     21300   904.94404     -49439.913      6724.9433      48.731617      2.3577398     -150789.87     -148648.08    
     21400   944.28772      31303.55       6724.9433      48.731617      2.3577398     -150851.23     -148616.32    
     21500   843.05213      56091.439      6724.9433      48.731617      2.3577398     -150770.94     -148775.63    
     21600   865.78352      78371.154      6724.9433      48.731617      2.3577398     -150851.15     -148802.05    
     21700   937.47597      58681.94       6724.9433      48.731617      2.3577398     -150965.2      -148746.42    
     21800   888.41934      10027.722      6724.9433      48.731617      2.3577398     -150805.08     -148702.4     
     21900   918.26428      16760.033      6724.9433      48.731617      2.3577398     -150793.88     -148620.56    
     22000   926.82881     -12772.174      6724.9433      48.731617      2.3577398     -150915.71     -148722.12    
     22100   873.67575      76799.577      6724.9433      48.731617      2.3577398     -150931        -148863.22    
     22200   875.8011       59059.498      6724.9433      48.731617      2.3577398     -150920.38     -148847.56    
     22300   882.91871      25710.524      6724.9433      48.731617      2.3577398     -150834.98     -148745.32    
     22400   961.9187       91280.294      6724.9433      48.731617      2.3577398     -150911.36     -148634.73    
     22500   908.16438     -1811.529       6724.9433      48.731617      2.3577398     -150829.29     -148679.88    
     22600   932.01649      76534.523      6724.9433      48.731617      2.3577398     -150906.86     -148701       
     22700   908.17427      35679.687      6724.9433      48.731617      2.3577398     -150900.13     -148750.69    
     22800   862.14109      28947.041      6724.9433      48.731617      2.3577398     -150962.45     -148921.96    
     22900   855.61833      4607.226       6724.9433      48.731617      2.3577398     -150973.52     -148948.48    
     23000   876.1949       61516.512      6724.9433      48.731617      2.3577398     -150924.55     -148850.8     
     23100   916.89543      80334.606      6724.9433      48.731617      2.3577398     -150956.07     -148786       
     23200   895.91381      29349.788      6724.9433      48.731617      2.3577398     -150866.31     -148745.89    
     23300   910.74197      69219.189      6724.9433      48.731617      2.3577398     -150892.09     -148736.58    
     23400   913.56204      26401.595      6724.9433      48.731617      2.3577398     -150900.32     -148738.14    
     23500   871.80726      60470.016      6724.9433      48.731617      2.3577398     -150794.98     -148731.62    
     23600   878.56007      63519.811      6724.9433      48.731617      2.3577398     -150798.07     -148718.73    
     23700   900.86235     -527.01124      6724.9433      48.731617      2.3577398     -150862.92     -148730.79    
     23800   894.68187     -10998.981      6724.9433      48.731617      2.3577398     -150894.58     -148777.08    
     23900   865.04206      68206.836      6724.9433      48.731617      2.3577398     -150934.47     -148887.12    
     24000   887.17852      28866.455      6724.9433      48.731617      2.3577398     -150995.58     -148895.84    
     24100   919.22348      32513.157      6724.9433      48.731617      2.3577398     -150912.43     -148736.84    
     24200   907.23538      18377.323      6724.9433      48.731617      2.3577398     -150834.06     -148686.85    
     24300   925.89417      2980.3125      6724.9433      48.731617      2.3577398     -150922.41     -148731.03    
     24400   869.27842      39523.229      6724.9433      48.731617      2.3577398     -150896.87     -148839.49    
     24500   856.39402      30849.88       6724.9433      48.731617      2.3577398     -150885.25     -148858.37    
     24600   946.59134      84535.754      6724.9433      48.731617      2.3577398     -150938.96     -148698.61    
     24700   896.3732       34289.11       6724.9433      48.731617      2.3577398     -150806.24     -148684.73    
     24800   897.72485      26502.569      6724.9433      48.731617      2.3577398     -150837.77     -148713.07    
     24900   869.23851      43.887181      6724.9433      48.731617      2.3577398     -150849.92     -148792.64    
     25000   891.94436     -11652.813      6724.9433      48.731617      2.3577398     -150963.39     -148852.37    
     25100   863.95674      45128.788      6724.9433      48.731617      2.3577398     -150974.23     -148929.45    
     25200   864.48105      56285.681      6724.9433      48.731617      2.3577398     -150997.68     -148951.66    
     25300   863.29206     -5102.6956      6724.9433      48.731617      2.3577398     -150836.43     -148793.22    
     25400   915.91533      85090.68       6724.9433      48.731617      2.3577398     -150859.57     -148691.82    
     25500   912.23355      916.8709       6724.9433      48.731617      2.3577398     -150832.48     -148673.44    
     25600   927.74022      67438.085      6724.9433      48.731617      2.3577398     -150863.23     -148667.49    
     25700   891.64786      16208.394      6724.9433      48.731617      2.3577398     -150860.77     -148750.45    
     25800   875.26223      38820.302      6724.9433      48.731617      2.3577398     -150936.45     -148864.92    
     25900   885.79829     -25721.009      6724.9433      48.731617      2.3577398     -150942.14     -148845.67    
     26000   906.69809      7243.0362      6724.9433      48.731617      2.3577398     -150848.49     -148702.55    
     26100   925.07583      3252.0968      6724.9433      48.731617      2.3577398     -150820.98     -148631.55    
     26200   886.89747      48237.074      6724.9433      48.731617      2.3577398     -150780.35     -148681.27    
     26300   892.22121      10377.29       6724.9433      48.731617      2.3577398     -150810.38     -148698.7     
     26400   920.42422      48099.587      6724.9433      48.731617      2.3577398     -150933.87     -148755.45    
     26500   870.34863      33327.096      6724.9433      48.731617      2.3577398     -150945.49     -148885.58    
     26600   865.66792      37159.894      6724.9433      48.731617      2.3577398     -150898.05     -148849.22    
     26700   884.44207      45014.479      6724.9433      48.731617      2.3577398     -150823.55     -148730.29    
     26800   914.70918     -21778.614      6724.9433      48.731617      2.3577398     -150832.49     -148667.59    
     26900   898.63908      16678.005      6724.9433      48.731617      2.3577398     -150840.05     -148713.19    
     27000   865.32262      34281.464      6724.9433      48.731617      2.3577398     -150819.33     -148771.32    
     27100   878.24847      5634.2544      6724.9433      48.731617      2.3577398     -150907.84     -148829.23    
     27200   862.71139      60244.176      6724.9433      48.731617      2.3577398     -150901.57     -148859.73    
     27300   865.46836      36854.217      6724.9433      48.731617      2.3577398     -150826.91     -148778.55    
     27400   938.8593       332.12558      6724.9433      48.731617      2.3577398     -150864.61     -148642.56    
     27500   960.07212      21944.496      6724.9433      48.731617      2.3577398     -150890.74     -148618.48    
     27600   910.97989      65388.527      6724.9433      48.731617      2.3577398     -150872.07     -148715.99    
     27700   870.64132      4758.0399      6724.9433      48.731617      2.3577398     -150861.93     -148801.33    
     27800   881.63788      17046.862      6724.9433      48.731617      2.3577398     -150897.53     -148810.91    
     27900   911.01674      44130.304      6724.9433      48.731617      2.3577398     -150947.15     -148790.99    
     28000   882.84173     -2214.7449      6724.9433      48.731617      2.3577398     -150850.78     -148761.3     
     28100   910.55095      42385.005      6724.9433      48.731617      2.3577398     -150874.67     -148719.61    
     28200   936.58161      22887.826      6724.9433      48.731617      2.3577398     -150923.18     -148706.52    
     28300   881.96617      44681.89       6724.9433      48.731617      2.3577398     -150859.71     -148772.31    
     28400   884.42051     -48794.184      6724.9433      48.731617      2.3577398     -150961.11     -148867.9     
     28500   875.59422      57256.063      6724.9433      48.731617      2.3577398     -150943.96     -148871.64    
     28600   923.52913      35380.917      6724.9433      48.731617      2.3577398     -150903.34     -148717.57    
     28700   902.69921      9182.325       6724.9433      48.731617      2.3577398     -150780.54     -148644.07    
     28800   917.52374      45945.199      6724.9433      48.731617      2.3577398     -150878.13     -148706.57    
     28900   937.39276      56328.9        6724.9433      48.731617      2.3577398     -150976.99     -148758.4     
     29000   895.88247      24107.522      6724.9433      48.731617      2.3577398     -150898.23     -148777.89    
     29100   910.68605      39724.954      6724.9433      48.731617      2.3577398     -150918.06     -148762.68    
     29200   931.79369      69476.905      6724.9433      48.731617      2.3577398     -150899.28     -148693.95    
     29300   940.54276      48220.489      6724.9433      48.731617      2.3577398     -150820.26     -148594.21    
     29400   933.67861      57710.458      6724.9433      48.731617      2.3577398     -150830.78     -148620.98    
     29500   894.59875      18545.236      6724.9433      48.731617      2.3577398     -150865.49     -148748.18    
     29600   864.74168      59250.73       6724.9433      48.731617      2.3577398     -150858.31     -148811.67    
     29700   878.53585      30560.409      6724.9433      48.731617      2.3577398     -150872.53     -148793.25    
     29800   917.24173      27851.201      6724.9433      48.731617      2.3577398     -150906.84     -148735.94    
     29900   933.89711     -3929.3443      6724.9433      48.731617      2.3577398     -150757.28     -148546.97    
     30000   934.37106      12804.804      6724.9433      48.731617      2.3577398     -150765.38     -148553.95    
     30100   900.19899     -12397.084      6724.9433      48.731617      2.3577398     -150797.94     -148667.38    
     30200   891.66673      96308.784      6724.9433      48.731617      2.3577398     -150844.61     -148734.25    
     30300   879.72153      11187.785      6724.9433      48.731617      2.3577398     -150864.59     -148782.49    
     30400   868.62576      30498.896      6724.9433      48.731617      2.3577398     -150880.99     -148825.16    
     30500   840.58688     -33972.495      6724.9433      48.731617      2.3577398     -150834.23     -148844.76    
     30600   916.78907      102035.47      6724.9433      48.731617      2.3577398     -150941.32     -148771.5     
     30700   909.58227     -23708.297      6724.9433      48.731617      2.3577398     -150820.12     -148667.35    
     30800   893.93949     -6552.256       6724.9433      48.731617      2.3577398     -150770.09     -148654.35    
     30900   935.38349      20612.91       6724.9433      48.731617      2.3577398     -150938.43     -148724.59    
     31000   861.48803      61193.747      6724.9433      48.731617      2.3577398     -150921.95     -148883.01    
     31100   868.38529      4013.5136      6724.9433      48.731617      2.3577398     -150906.84     -148851.58    
     31200   847.76409     -48078.103      6724.9433      48.731617      2.3577398     -150766.63     -148760.17    
     31300   924.54865      60738.885      6724.9433      48.731617      2.3577398     -150908.31     -148720.12    
     31400   855.26853      24297.626      6724.9433      48.731617      2.3577398     -150762.38     -148738.17    
     31500   876.18003      65243.009      6724.9433      48.731617      2.3577398     -150815.82     -148742.11    
     31600   927.40286      38824.493      6724.9433      48.731617      2.3577398     -150943.56     -148748.62    
     31700   872.69609      32238.072      6724.9433      48.731617      2.3577398     -150807.79     -148742.33    
     31800   923.57893     -14989.397      6724.9433      48.731617      2.3577398     -150869.37     -148683.48    
     31900   931.18411      50479.817      6724.9433      48.731617      2.3577398     -150881.99     -148678.1     
     32000   890.65177      64146.764      6724.9433      48.731617      2.3577398     -150951.39     -148843.43    
     32100   875.05696      54070.033      6724.9433      48.731617      2.3577398     -150955.36     -148884.31    
     32200   871.46654      5672.5625      6724.9433      48.731617      2.3577398     -150862.94     -148800.38    
     32300   924.5534       108181.02      6724.9433      48.731617      2.3577398     -150898.71     -148710.51    
     32400   900.47652      7496.014       6724.9433      48.731617      2.3577398     -150826.52     -148695.31    
     32500   937.81899      3201.5955      6724.9433      48.731617      2.3577398     -150934.49     -148714.89    
     32600   929.51623     -4960.3401      6724.9433      48.731617      2.3577398     -150926.95     -148727       
     32700   888.42099      73744.638      6724.9433      48.731617      2.3577398     -150842.9      -148740.22    
     32800   847.72591      15950.798      6724.9433      48.731617      2.3577398     -150791.44     -148785.08    
     32900   864.83723     -16734.525      6724.9433      48.731617      2.3577398     -150846.47     -148799.61    
     33000   919.78719     -20303.104      6724.9433      48.731617      2.3577398     -150920.48     -148743.57    
     33100   937.37283      4757.3335      6724.9433      48.731617      2.3577398     -150886.64     -148668.1     
     33200   877.3051       31043.505      6724.9433      48.731617      2.3577398     -150766.23     -148689.86    
     33300   860.2012       36968.016      6724.9433      48.731617      2.3577398     -150864.69     -148828.79    
     33400   891.49823      53907.741      6724.9433      48.731617      2.3577398     -150968.47     -148858.5     
     33500   868.60532      22227.342      6724.9433      48.731617      2.3577398     -150857.14     -148801.36    
     33600   916.66015      931.84226      6724.9433      48.731617      2.3577398     -150899.72     -148730.2     
     33700   945.37819     -9490.4957      6724.9433      48.731617      2.3577398     -150951.3      -148713.81    
     33800   912.47613     -13138.302      6724.9433      48.731617      2.3577398     -150901.46     -148741.85    
     33900   879.0174       33856.107      6724.9433      48.731617      2.3577398     -150874.04     -148793.61    
     34000   870.44486      50029.208      6724.9433      48.731617      2.3577398     -150934.74     -148874.6     
     34100   863.50072      14586.001      6724.9433      48.731617      2.3577398     -150995.63     -148951.92    
     34200   864.68956      4339.2373      6724.9433      48.731617      2.3577398     -150987.99     -148941.47    
     34300   891.41458     -46883.318      6724.9433      48.731617      2.3577398     -150897.91     -148788.14    
     34400   911.19678      55914.358      6724.9433      48.731617      2.3577398     -150897.32     -148740.74    
     34500   891.7205       102489.29      6724.9433      48.731617      2.3577398     -150858.65     -148748.15    
     34600   912.55437      31683.086      6724.9433      48.731617      2.3577398     -150921.74     -148761.94    
     34700   910.12455     -13437.848      6724.9433      48.731617      2.3577398     -150976.96     -148822.91    
     34800   904.15696      33399.958      6724.9433      48.731617      2.3577398     -151038.43     -148898.5     
     34900   869.47623      18483.095      6724.9433      48.731617      2.3577398     -150975.82     -148917.97    
     35000   897.17678      16450.125      6724.9433      48.731617      2.3577398     -150917.27     -148793.86    
     35100   904.39039      1923.4637      6724.9433      48.731617      2.3577398     -150840.17     -148699.69    
     35200   886.13212      10783.159      6724.9433      48.731617      2.3577398     -150780.52     -148683.26    
     35300   886.18025      60573.77       6724.9433      48.731617      2.3577398     -150830.48     -148733.1     
     35400   878.65932      17869.026      6724.9433      48.731617      2.3577398     -150945        -148865.42    
     35500   892.35394      36159.51       6724.9433      48.731617      2.3577398     -150987.81     -148875.82    
     35600   874.17073      36355.4        6724.9433      48.731617      2.3577398     -150891.23     -148822.28    
     35700   900.98824     -12167.104      6724.9433      48.731617      2.3577398     -150864.86     -148732.44    
     35800   920.69617      55344.91       6724.9433      48.731617      2.3577398     -150868.58     -148689.51    
     35900   880.28004      6345.8798      6724.9433      48.731617      2.3577398     -150852.27     -148768.85    
     36000   879.61058      30001.285      6724.9433      48.731617      2.3577398     -151010.08     -148928.25    
     36100   875.3097      -7388.3638      6724.9433      48.731617      2.3577398     -150997.47     -148925.82    
     36200   889.94576      44635.884      6724.9433      48.731617      2.3577398     -150962.78     -148856.49    
     36300   875.28175      55298.763      6724.9433      48.731617      2.3577398     -150819.39     -148747.8     
     36400   900.13475      55013.75       6724.9433      48.731617      2.3577398     -150828.94     -148698.53    
     36500   890.43399      67231.973      6724.9433      48.731617      2.3577398     -150810.98     -148703.53    
     36600   880.92649      12841.799      6724.9433      48.731617      2.3577398     -150869.19     -148784.24    
     36700   833.85517     -5223.8298      6724.9433      48.731617      2.3577398     -150920.7      -148947.17    
     36800   887.738        25645.46       6724.9433      48.731617      2.3577398     -150986.94     -148885.88    
     36900   881.78288      84632.871      6724.9433      48.731617      2.3577398     -150872.86     -148785.89    
     37000   910.57308      119367.08      6724.9433      48.731617      2.3577398     -150863.34     -148708.23    
     37100   907.84514      5941.8903      6724.9433      48.731617      2.3577398     -150835.33     -148686.67    
     37200   873.05432      15212.88       6724.9433      48.731617      2.3577398     -150769.77     -148703.46    
     37300   906.87674      108939.53      6724.9433      48.731617      2.3577398     -151012.57     -148866.21    
     37400   849.90593     -12088.767      6724.9433      48.731617      2.3577398     -150931.21     -148919.68    
     37500   879.06946      20298.332      6724.9433      48.731617      2.3577398     -150902.97     -148822.42    
     37600   949.80537      48874.399      6724.9433      48.731617      2.3577398     -150968.97     -148721.01    
     37700   927.36386      70184.102      6724.9433      48.731617      2.3577398     -150937.32     -148742.47    
     37800   879.99781      101244.4       6724.9433      48.731617      2.3577398     -150871.71     -148788.97    
     37900   856.0803       56558.165      6724.9433      48.731617      2.3577398     -150873.8      -148847.66    
     38000   900.43932      29185.263      6724.9433      48.731617      2.3577398     -150964.54     -148833.41    
     38100   911.1024       8397.7711      6724.9433      48.731617      2.3577398     -150877.36     -148720.99    
     38200   917.61039      52450.142      6724.9433      48.731617      2.3577398     -150801.73     -148629.97    
     38300   969.66001      40515.412      6724.9433      48.731617      2.3577398     -150932.01     -148637.06    
     38400   904.58839      7711.6675      6724.9433      48.731617      2.3577398     -150938.25     -148797.3     
     38500   892.99095      64826.578      6724.9433      48.731617      2.3577398     -150966.9      -148853.4     
     38600   899.13982      81486.227      6724.9433      48.731617      2.3577398     -150942.61     -148814.56    
     38700   915.38838      29516.747      6724.9433      48.731617      2.3577398     -150882.88     -148716.37    
     38800   964.29535      67470.542      6724.9433      48.731617      2.3577398     -150925.68     -148643.42    
     38900   931.26363      52164.717      6724.9433      48.731617      2.3577398     -150871.38     -148667.3     
     39000   930.36861      68366.702      6724.9433      48.731617      2.3577398     -150923.88     -148721.91    
     39100   926.7445      -20455.971      6724.9433      48.731617      2.3577398     -150954.39     -148761.01    
     39200   897.25664      59750.016      6724.9433      48.731617      2.3577398     -150935.05     -148811.46    
     39300   840.82069      25584.931      6724.9433      48.731617      2.3577398     -150879.61     -148889.58    
     39400   860.20831      36817.837      6724.9433      48.731617      2.3577398     -150961.29     -148925.38    
     39500   861.47963      4958.7461      6724.9433      48.731617      2.3577398     -150924.92     -148886       
     39600   897.36644      38598.889      6724.9433      48.731617      2.3577398     -150860.04     -148736.18    
     39700   939.91158      70750.629      6724.9433      48.731617      2.3577398     -150911.62     -148687.07    
     39800   913.89516      59902.088      6724.9433      48.731617      2.3577398     -150865.47     -148702.5     
     39900   869.33682      57418.203      6724.9433      48.731617      2.3577398     -150845.04     -148787.53    
     40000   869.61802      27877.974      6724.9433      48.731617      2.3577398     -150950.4      -148892.22    
     40100   872.34936     -5147.6125      6724.9433      48.731617      2.3577398     -150952.8      -148888.15    
     40200   935.95563      10239.904      6724.9433      48.731617      2.3577398     -150935.32     -148720.13    
     40300   928.72909      46475.714      6724.9433      48.731617      2.3577398     -150854.98     -148656.9     
     40400   904.22263      9532.2648      6724.9433      48.731617      2.3577398     -150859.87     -148719.79    
     40500   900.9155       15687.111      6724.9433      48.731617      2.3577398     -150913.92     -148781.66    
     40600   869.06847      3275.1082      6724.9433      48.731617      2.3577398     -150909        -148852.12    
     40700   864.84982      26552.376      6724.9433      48.731617      2.3577398     -150965.52     -148918.62    
     40800   876.98247      42453.653      6724.9433      48.731617      2.3577398     -151091.67     -149016.06    
     40900   856.90887     -5956.522       6724.9433      48.731617      2.3577398     -150976.36     -148948.26    
     41000   915.59536      8012.6814      6724.9433      48.731617      2.3577398     -150976.38     -148809.38    
     41100   924.28025      72323.407      6724.9433      48.731617      2.3577398     -150937.63     -148750.08    
     41200   904.72462      29236.535      6724.9433      48.731617      2.3577398     -150858.86     -148717.59    
     41300   915.84819      35262.571      6724.9433      48.731617      2.3577398     -150878.01     -148710.42    
     41400   914.63093      10623.02       6724.9433      48.731617      2.3577398     -150817.92     -148653.21    
     41500   947.87969      55894.377      6724.9433      48.731617      2.3577398     -150872.84     -148629.43    
     41600   911.26567      43271.449      6724.9433      48.731617      2.3577398     -150910.31     -148753.56    
     41700   878.49896      45540.479      6724.9433      48.731617      2.3577398     -150912.6      -148833.4     
     41800   933.18399      44015.032      6724.9433      48.731617      2.3577398     -151029.44     -148820.82    
     41900   898.3905       10118.56       6724.9433      48.731617      2.3577398     -150879.41     -148753.14    
     42000   922.89149      22686.904      6724.9433      48.731617      2.3577398     -150760.87     -148576.61    
     42100   919.22972      23915.819      6724.9433      48.731617      2.3577398     -150739.77     -148564.18    
     42200   938.92807      11918.784      6724.9433      48.731617      2.3577398     -150871.64     -148649.42    
     42300   922.4038       42693.058      6724.9433      48.731617      2.3577398     -150911.54     -148728.43    
     42400   934.72716      13243.422      6724.9433      48.731617      2.3577398     -151018.04     -148805.77    
     42500   876.77314      13907.586      6724.9433      48.731617      2.3577398     -150925.7      -148850.59    
     42600   896.59751      41515.818      6724.9433      48.731617      2.3577398     -150893.88     -148771.84    
     42700   918.27107      11718.902      6724.9433      48.731617      2.3577398     -150792.63     -148619.3     
     42800   906.62225      14949.195      6724.9433      48.731617      2.3577398     -150785.23     -148639.47    
     42900   876.74949      101530.53      6724.9433      48.731617      2.3577398     -150800.17     -148725.11    
     43000   898.93449      59923.845      6724.9433      48.731617      2.3577398     -150890.84     -148763.27    
     43100   889.74357      37556.402      6724.9433      48.731617      2.3577398     -150918.14     -148812.33    
     43200   886.70174      5384.5108      6724.9433      48.731617      2.3577398     -151042.79     -148944.17    
     43300   876.48748      49926.862      6724.9433      48.731617      2.3577398     -151087.84     -149013.41    
     43400   834.56238      41488.573      6724.9433      48.731617      2.3577398     -150896.47     -148921.26    
     43500   892.0635       50075.711      6724.9433      48.731617      2.3577398     -150926.01     -148814.71    
     43600   878.28703     -13695.901      6724.9433      48.731617      2.3577398     -150837.38     -148758.68    
     43700   928.67149      49307.164      6724.9433      48.731617      2.3577398     -150893.7      -148695.75    
     43800   941.62601      96572.073      6724.9433      48.731617      2.3577398     -150957.99     -148729.38    
     43900   866.47727      32500.541      6724.9433      48.731617      2.3577398     -150919.8      -148869.05    
     44000   868.09268      42958.57       6724.9433      48.731617      2.3577398     -150910.7      -148856.13    
     44100   916.34404      57262.346      6724.9433      48.731617      2.3577398     -150954.14     -148785.37    
     44200   907.90164      1961.9387      6724.9433      48.731617      2.3577398     -150897.63     -148748.84    
     44300   901.58308      59366.038      6724.9433      48.731617      2.3577398     -150884.5      -148750.67    
     44400   907.49126     -17707.321      6724.9433      48.731617      2.3577398     -150907.99     -148760.18    
     44500   909.21033      55839.853      6724.9433      48.731617      2.3577398     -150899.22     -148747.33    
     44600   904.7481       22994.097      6724.9433      48.731617      2.3577398     -150845.36     -148704.03    
     44700   903.28299      58409.973      6724.9433      48.731617      2.3577398     -150709.41     -148571.56    
     44800   945.8133      -4716.6063      6724.9433      48.731617      2.3577398     -150811.44     -148572.93    
     44900   905.5655       40607.227      6724.9433      48.731617      2.3577398     -150863.14     -148719.88    
     45000   900.39403      54465.839      6724.9433      48.731617      2.3577398     -150923.94     -148792.92    
     45100   848.17647      29528.152      6724.9433      48.731617      2.3577398     -150825.17     -148817.74    
     45200   898.82959      55403.955      6724.9433      48.731617      2.3577398     -150925.25     -148797.93    
     45300   931.13618      18489.137      6724.9433      48.731617      2.3577398     -150900.17     -148696.4     
     45400   904.96632      14561.138      6724.9433      48.731617      2.3577398     -150759.33     -148617.49    
     45500   927.15389      47519.285      6724.9433      48.731617      2.3577398     -150905.4      -148711.04    
     45600   869.55056     -23481.455      6724.9433      48.731617      2.3577398     -150884.07     -148826.05    
     45700   895.96878     -22681.154      6724.9433      48.731617      2.3577398     -150954.22     -148833.68    
     45800   918.23754      64784.183      6724.9433      48.731617      2.3577398     -150965.41     -148792.15    
     45900   929.93558      63212.09       6724.9433      48.731617      2.3577398     -150888.9      -148687.97    
     46000   929.11239      27558.518      6724.9433      48.731617      2.3577398     -150804.03     -148605.04    
     46100   888.52647      49825.164      6724.9433      48.731617      2.3577398     -150806.53     -148703.6     
     46200   865.95573      3160.7581      6724.9433      48.731617      2.3577398     -150896.66     -148847.15    
     46300   858.90768      77970.103      6724.9433      48.731617      2.3577398     -150855.72     -148822.89    
     46400   901.64116      64194.137      6724.9433      48.731617      2.3577398     -150884.45     -148750.48    
     46500   930.93886      9613.2815      6724.9433      48.731617      2.3577398     -150880.14     -148676.83    
     46600   919.07103      28613.806      6724.9433      48.731617      2.3577398     -150823.64     -148648.41    
     46700   895.55667      67395.35       6724.9433      48.731617      2.3577398     -150883.8      -148764.23    
     46800   889.97294     -7079.3297      6724.9433      48.731617      2.3577398     -150991.37     -148885.02    
     46900   894.02355      26416.837      6724.9433      48.731617      2.3577398     -150984.1      -148868.16    
     47000   915.55112      24093.088      6724.9433      48.731617      2.3577398     -150920.29     -148753.4     
     47100   920.15941      42767.141      6724.9433      48.731617      2.3577398     -150886.85     -148709.05    
     47200   894.84065      84058.046      6724.9433      48.731617      2.3577398     -150856.06     -148738.18    
     47300   934.94676      30937.55       6724.9433      48.731617      2.3577398     -150948.64     -148735.85    
     47400   922.64047     -43225.969      6724.9433      48.731617      2.3577398     -150953.58     -148769.91    
     47500   863.60438      48373.504      6724.9433      48.731617      2.3577398     -150984.04     -148940.1     
     47600   870.6822       37335.831      6724.9433      48.731617      2.3577398     -150987.37     -148926.68    
     47700   926.00001      34383.241      6724.9433      48.731617      2.3577398     -150997.86     -148806.24    
     47800   876.07288      89620.034      6724.9433      48.731617      2.3577398     -150794.17     -148720.72    
     47900   903.8175      -13378.959      6724.9433      48.731617      2.3577398     -150835.46     -148696.34    
     48000   918.29709      49502.048      6724.9433      48.731617      2.3577398     -150923.52     -148750.13    
     48100   862.10998      25848.361      6724.9433      48.731617      2.3577398     -150926.61     -148886.2     
     48200   836.9882       47391.608      6724.9433      48.731617      2.3577398     -150921.64     -148940.68    
     48300   888.51472     -48636.031      6724.9433      48.731617      2.3577398     -150938.86     -148835.96    
     48400   923.46691     -23583.068      6724.9433      48.731617      2.3577398     -150950.44     -148764.81    
     48500   881.27062     -23397.714      6724.9433      48.731617      2.3577398     -150849.23     -148763.47    
     48600   878.58184      68186.601      6724.9433      48.731617      2.3577398     -150810.07     -148730.67    
     48700   922.98163      9200.6791      6724.9433      48.731617      2.3577398     -150909        -148724.52    
     48800   919.22888      77200.836      6724.9433      48.731617      2.3577398     -150891.49     -148715.9     
     48900   938.40566      30968.843      6724.9433      48.731617      2.3577398     -150993.22     -148772.23    
     49000   921.95069      5274.8849      6724.9433      48.731617      2.3577398     -151067.57     -148885.53    
     49100   881.01729     -17578.798      6724.9433      48.731617      2.3577398     -151010.91     -148925.75    
     49200   881.17275      97651.612      6724.9433      48.731617      2.3577398     -150900.29     -148814.76    
     49300   928.27733      18711.403      6724.9433      48.731617      2.3577398     -150905.01     -148708       
     49400   925.52859     -3208.824       6724.9433      48.731617      2.3577398     -150901.41     -148710.9     
     49500   893.9831       1575.8324      6724.9433      48.731617      2.3577398     -150895.52     -148779.67    
     49600   894.23001      76007.104      6724.9433      48.731617      2.3577398     -150985.21     -148868.78    
     49700   867.9243      -2591.0645      6724.9433      48.731617      2.3577398     -150996.78     -148942.6     
     49800   864.53024     -6602.4275      6724.9433      48.731617      2.3577398     -150894.91     -148848.77    
     49900   936.60593      71906.35       6724.9433      48.731617      2.3577398     -150898.96     -148682.24    
     50000   929.46885      30214.383      6724.9433      48.731617      2.3577398     -150861.09     -148661.26    
     50100   921.5804      -7137.2264      6724.9433      48.731617      2.3577398     -150899.22     -148718.06    
     50200   903.52099      7046.1956      6724.9433      48.731617      2.3577398     -150973.91     -148835.49    
     50300   892.68433      71772.713      6724.9433      48.731617      2.3577398     -150967.96     -148855.18    
     50400   882.70112     -20336.306      6724.9433      48.731617      2.3577398     -150882.1      -148792.95    
     50500   911.15802      2613.5678      6724.9433      48.731617      2.3577398     -150773.98     -148617.49    
     50600   952.39424      36532.728      6724.9433      48.731617      2.3577398     -150877.3      -148623.21    
     50700   915.56062      26888.384      6724.9433      48.731617      2.3577398     -150883.91     -148716.99    
     50800   891.71237      104831.31      6724.9433      48.731617      2.3577398     -150891.91     -148781.44    
     50900   916.10495      342.08293      6724.9433      48.731617      2.3577398     -150976.3      -148808.09    
     51000   887.87833      83522.788      6724.9433      48.731617      2.3577398     -150908.33     -148806.93    
     51100   867.2494      -2610.3552      6724.9433      48.731617      2.3577398     -150765.11     -148712.54    
     51200   941.93927      28097.87       6724.9433      48.731617      2.3577398     -150851.79     -148622.44    
     51300   916.85445      19754.089      6724.9433      48.731617      2.3577398     -150840.12     -148670.14    
     51400   902.71304      48390.327      6724.9433      48.731617      2.3577398     -150960.82     -148824.31    
     51500   882.98569      73175.643      6724.9433      48.731617      2.3577398     -150920.9      -148831.08    
     51600   889.97095     -48388.251      6724.9433      48.731617      2.3577398     -150883.96     -148777.61    
     51700   948.10653      77137.54       6724.9433      48.731617      2.3577398     -150951.5      -148707.56    
     51800   924.97107      162.30626      6724.9433      48.731617      2.3577398     -150983.26     -148794.08    
     51900   864.76711      46306.84       6724.9433      48.731617      2.3577398     -150986.82     -148940.12    
     52000   900.06089      101600.66      6724.9433      48.731617      2.3577398     -151016.57     -148886.34    
     52100   913.65885      5468.3105      6724.9433      48.731617      2.3577398     -150952.91     -148790.49    
     52200   892.37815      43734.111      6724.9433      48.731617      2.3577398     -150870.71     -148758.66    
     52300   880.4033       54301.818      6724.9433      48.731617      2.3577398     -150852.14     -148768.43    
     52400   920.81546      45956.367      6724.9433      48.731617      2.3577398     -150913.51     -148734.16    
     52500   941.13148      73074.281      6724.9433      48.731617      2.3577398     -150841.3      -148613.86    
     52600   919.76484      26588.105      6724.9433      48.731617      2.3577398     -150785.05     -148608.18    
     52700   919.16769      5981.6494      6724.9433      48.731617      2.3577398     -150915.43     -148739.98    
     52800   917.63783      17410.965      6724.9433      48.731617      2.3577398     -150977.6      -148805.77    
     52900   897.98229     -5076.8537      6724.9433      48.731617      2.3577398     -150935.99     -148810.68    
     53000   892.52636      29987.474      6724.9433      48.731617      2.3577398     -150924.14     -148811.74    
     53100   937.20942      2541.8891      6724.9433      48.731617      2.3577398     -150985.94     -148767.79    
     53200   950.45533      44958.215      6724.9433      48.731617      2.3577398     -150921.62     -148672.12    
     53300   916.52319      25940.784      6724.9433      48.731617      2.3577398     -150837.48     -148668.29    
     53400   893.49009     -5474.8692      6724.9433      48.731617      2.3577398     -150914.47     -148799.79    
     53500   892.30952      21428.549      6724.9433      48.731617      2.3577398     -150984.08     -148872.19    
     53600   879.2363       8375.4845      6724.9433      48.731617      2.3577398     -150907.9      -148826.96    
     53700   876.30743      78498.881      6724.9433      48.731617      2.3577398     -150830.09     -148756.08    
     53800   913.23421      43351.367      6724.9433      48.731617      2.3577398     -150827.12     -148665.71    
     53900   917.89912      51232.523      6724.9433      48.731617      2.3577398     -150729.25     -148556.8     
     54000   920.63964     -24548.909      6724.9433      48.731617      2.3577398     -150630.73     -148451.79    
     54100   912.91472      39271.622      6724.9433      48.731617      2.3577398     -150767.54     -148606.88    
     54200   916.7877       39615.046      6724.9433      48.731617      2.3577398     -150902.35     -148732.53    
     54300   901.45107      22419.987      6724.9433      48.731617      2.3577398     -150955.31     -148821.79    
     54400   891.9915      -3244.3336      6724.9433      48.731617      2.3577398     -150991.85     -148880.72    
     54500   889.54902     -6332.7584      6724.9433      48.731617      2.3577398     -150949.8      -148844.44    
     54600   922.80217      40959.67       6724.9433      48.731617      2.3577398     -150881.16     -148697.1     
     54700   886.49086      14309.046      6724.9433      48.731617      2.3577398     -150762.45     -148664.33    
     54800   913.84204      18126.659      6724.9433      48.731617      2.3577398     -150884.73     -148721.88    
     54900   905.73555      20212.607      6724.9433      48.731617      2.3577398     -150903.68     -148760.02    
     55000   880.69326      90485.693      6724.9433      48.731617      2.3577398     -150874.88     -148790.48    
     55100   942.71343      49949.319      6724.9433      48.731617      2.3577398     -150995.66     -148764.48    
     55200   901.02776     -26391.69       6724.9433      48.731617      2.3577398     -150866.57     -148734.05    
     55300   908.99761     -4077.8115      6724.9433      48.731617      2.3577398     -150900.4      -148749.01    
     55400   917.52566      35835.437      6724.9433      48.731617      2.3577398     -150926.92     -148755.35    
     55500   896.35379      42811.767      6724.9433      48.731617      2.3577398     -150884.23     -148762.77    
     55600   882.51412      21720.722      6724.9433      48.731617      2.3577398     -150850.71     -148762.01    
     55700   909.17199      39689.627      6724.9433      48.731617      2.3577398     -150906.6      -148754.8     
     55800   896.52832      28752.614      6724.9433      48.731617      2.3577398     -150888.43     -148766.56    
     55900   870.21168      61167.842      6724.9433      48.731617      2.3577398     -150868.4      -148808.81    
     56000   875.55026      35552.395      6724.9433      48.731617      2.3577398     -150871.07     -148798.85    
     56100   915.17653      24536.314      6724.9433      48.731617      2.3577398     -150859.39     -148693.38    
     56200   926.46157      5134.3765      6724.9433      48.731617      2.3577398     -150820        -148627.28    
     56300   878.60873     -4984.4956      6724.9433      48.731617      2.3577398     -150780.42     -148700.96    
     56400   900.56434      64251.042      6724.9433      48.731617      2.3577398     -150985.45     -148854.02    
     56500   846.07218      61056.655      6724.9433      48.731617      2.3577398     -150923.39     -148920.93    
     56600   863.76582      33282.774      6724.9433      48.731617      2.3577398     -150888.47     -148844.14    
     56700   912.25781      36421.505      6724.9433      48.731617      2.3577398     -150932.73     -148773.64    
     56800   918.65373     -11200.245      6724.9433      48.731617      2.3577398     -150899.85     -148725.62    
     56900   905.33322     -12992.188      6724.9433      48.731617      2.3577398     -150824.1      -148681.39    
     57000   894.47028      42753.833      6724.9433      48.731617      2.3577398     -150820.27     -148703.27    
     57100   867.52277      48135.956      6724.9433      48.731617      2.3577398     -150857.15     -148803.92    
     57200   869.62352     -19051.39       6724.9433      48.731617      2.3577398     -150909.4      -148851.21    
     57300   910.23959      33849.747      6724.9433      48.731617      2.3577398     -150929.82     -148775.5     
     57400   927.57124      1198.6285      6724.9433      48.731617      2.3577398     -150854.47     -148659.13    
     57500   912.38565     -11131.939      6724.9433      48.731617      2.3577398     -150853.72     -148694.32    
     57600   900.95177      51701.426      6724.9433      48.731617      2.3577398     -150986.39     -148854.05    
     57700   844.0338       54683.17       6724.9433      48.731617      2.3577398     -150950.43     -148952.81    
     57800   912.02701     -999.14197      6724.9433      48.731617      2.3577398     -151022.76     -148864.21    
     57900   932.09123     -13564.253      6724.9433      48.731617      2.3577398     -150961.02     -148754.98    
     58000   898.15082      37792.778      6724.9433      48.731617      2.3577398     -150836.39     -148710.68    
     58100   938.37021      62170.59       6724.9433      48.731617      2.3577398     -150934.16     -148713.26    
     58200   865.39622     -47721.383      6724.9433      48.731617      2.3577398     -150901.67     -148853.48    
     58300   875.78782      15515.418      6724.9433      48.731617      2.3577398     -151018.37     -148945.59    
     58400   872.16906      19222.354      6724.9433      48.731617      2.3577398     -151010.03     -148945.82    
     58500   920.38915      27415.096      6724.9433      48.731617      2.3577398     -151002.09     -148823.75    
     58600   869.26425      27918.166      6724.9433      48.731617      2.3577398     -150798.35     -148741.01    
     58700   881.80028      77622.983      6724.9433      48.731617      2.3577398     -150814.84     -148727.83    
     58800   917.74819     -28620.816      6724.9433      48.731617      2.3577398     -150895.9      -148723.8     
     58900   904.59735      15732.397      6724.9433      48.731617      2.3577398     -150874.04     -148733.08    
     59000   892.38808      40457.589      6724.9433      48.731617      2.3577398     -150864.95     -148752.88    
     59100   884.43655      52619.136      6724.9433      48.731617      2.3577398     -150887.08     -148793.83    
     59200   912.20678     -9574.3308      6724.9433      48.731617      2.3577398     -150965.23     -148806.25    
     59300   894.46102     -14403.922      6724.9433      48.731617      2.3577398     -150972.32     -148855.34    
     59400   872.27601     -22321.03       6724.9433      48.731617      2.3577398     -150980.33     -148915.86    
     59500   857.85493      49942.549      6724.9433      48.731617      2.3577398     -150901.94     -148871.6     
     59600   893.9757      -22211.078      6724.9433      48.731617      2.3577398     -150832.87     -148717.04    
     59700   922.63746      36813.157      6724.9433      48.731617      2.3577398     -150853.58     -148669.92    
     59800   911.02706      73583.375      6724.9433      48.731617      2.3577398     -150849.45     -148693.27    
     59900   893.43376      16260.064      6724.9433      48.731617      2.3577398     -150915.33     -148800.78    
     60000   860.77884      131792.11      6724.9433      48.731617      2.3577398     -150938.74     -148901.48    
     60100   870.94919      25553.664      6724.9433      48.731617      2.3577398     -150933.06     -148871.73    
     60200   892.29489      22578.621      6724.9433      48.731617      2.3577398     -150935.05     -148823.2     
     60300   941.92806      49494.901      6724.9433      48.731617      2.3577398     -151022.07     -148792.75    
     60400   875.50596      18100.536      6724.9433      48.731617      2.3577398     -150887.11     -148814.99    
     60500   901.33683      40796.572      6724.9433      48.731617      2.3577398     -150902.4      -148769.15    
     60600   963.59624      20019.093      6724.9433      48.731617      2.3577398     -150898.4      -148617.8     
     60700   920.2712       21245.743      6724.9433      48.731617      2.3577398     -150826.23     -148648.17    
     60800   890.9925      -4601.8885      6724.9433      48.731617      2.3577398     -150867.41     -148758.64    
     60900   881.54221     -32140.337      6724.9433      48.731617      2.3577398     -150921.36     -148834.96    
     61000   909.828        73223.751      6724.9433      48.731617      2.3577398     -150968.04     -148814.69    
     61100   894.55738      46320.965      6724.9433      48.731617      2.3577398     -150909.44     -148792.23    
     61200   888.54255      40853.036      6724.9433      48.731617      2.3577398     -150809.99     -148707.02    
     61300   961.07516      57671.279      6724.9433      48.731617      2.3577398     -150839.94     -148565.3     
     61400   915.31785      88188.547      6724.9433      48.731617      2.3577398     -150710.02     -148543.68    
     61500   928.98483      13187.091      6724.9433      48.731617      2.3577398     -150934.74     -148736.05    
     61600   898.91036     -32801.637      6724.9433      48.731617      2.3577398     -150940.19     -148812.68    
     61700   893.24535      25396.336      6724.9433      48.731617      2.3577398     -150954.25     -148840.15    
     61800   871.25219      18326.262      6724.9433      48.731617      2.3577398     -150894.91     -148832.86    
     61900   936.51351      54881.252      6724.9433      48.731617      2.3577398     -150935.65     -148719.15    
     62000   920.54022      38236.218      6724.9433      48.731617      2.3577398     -150864.32     -148685.62    
     62100   889.89432      11622.179      6724.9433      48.731617      2.3577398     -150889.62     -148783.45    
     62200   883.01784      32238.472      6724.9433      48.731617      2.3577398     -151015.4      -148925.51    
     62300   844.18335      60297.871      6724.9433      48.731617      2.3577398     -150924.7      -148926.71    
     62400   889.07659      43566.947      6724.9433      48.731617      2.3577398     -150955.09     -148850.86    
     62500   914.62612      10827.271      6724.9433      48.731617      2.3577398     -150952.05     -148787.35    
     62600   921.13437     -36596.428      6724.9433      48.731617      2.3577398     -150930.52     -148750.41    
     62700   865.31644      56246.568      6724.9433      48.731617      2.3577398     -150777.31     -148729.31    
     62800   948.44252      50239.834      6724.9433      48.731617      2.3577398     -150871.38     -148626.65    
     62900   924.80513      4117.2037      6724.9433      48.731617      2.3577398     -150809.31     -148620.52    
     63000   884.2072       56597.752      6724.9433      48.731617      2.3577398     -150852.6      -148759.89    
     63100   866.56125      233.34793      6724.9433      48.731617      2.3577398     -150877.09     -148826.15    
     63200   901.27592      27553.002      6724.9433      48.731617      2.3577398     -150934.63     -148801.53    
     63300   930.01077      10211.748      6724.9433      48.731617      2.3577398     -150936.36     -148735.24    
     63400   906.20988      46263.288      6724.9433      48.731617      2.3577398     -150818.18     -148673.39    
     63500   898.87036      47406.739      6724.9433      48.731617      2.3577398     -150729.95     -148602.54    
     63600   917.71486      5118.7197      6724.9433      48.731617      2.3577398     -150815.97     -148643.96    
     63700   904.42672      51188.793      6724.9433      48.731617      2.3577398     -150913.77     -148773.2     
     63800   911.19264      5083.4484      6724.9433      48.731617      2.3577398     -151002.92     -148846.35    
     63900   877.84138     -208.97681      6724.9433      48.731617      2.3577398     -150966.72     -148889.07    
     64000   906.25883     -8337.6756      6724.9433      48.731617      2.3577398     -150966        -148821.1     
     64100   904.85914      21017.211      6724.9433      48.731617      2.3577398     -150812.12     -148670.53    
     64200   948.6605       57650.739      6724.9433      48.731617      2.3577398     -150837.42     -148592.16    
     64300   900.03902      43298.326      6724.9433      48.731617      2.3577398     -150796.27     -148666.09    
     64400   884.81663     -30893.006      6724.9433      48.731617      2.3577398     -150905.3      -148811.14    
     64500   858.14379      18180.594      6724.9433      48.731617      2.3577398     -150891.75     -148860.73    
[...]
    384200   917.95254      4057.2075      6724.9433      48.731617      2.3577398     -150851.93     -148679.35    
    384300   913.44906     -27848.594      6724.9433      48.731617      2.3577398     -150829.8      -148667.88    
    384400   919.72765     -7810.1019      6724.9433      48.731617      2.3577398     -150943.49     -148766.71    
    384500   891.75357      116549.95      6724.9433      48.731617      2.3577398     -150980.21     -148869.64    
    384600   902.64766      38826.481      6724.9433      48.731617      2.3577398     -151008.84     -148872.49    
    384700   879.89194      52083.223      6724.9433      48.731617      2.3577398     -150924.18     -148841.69    
    384800   943.55445     -1680.9255      6724.9433      48.731617      2.3577398     -150976.03     -148742.86    
    384900   976.53199      90360.137      6724.9433      48.731617      2.3577398     -150959.39     -148648.17    
    385000   905.33334      83102.703      6724.9433      48.731617      2.3577398     -150919.24     -148776.53    
    385100   895.14399      38902.644      6724.9433      48.731617      2.3577398     -150978.75     -148860.16    
    385200   910.35253      47129.619      6724.9433      48.731617      2.3577398     -151010.78     -148856.2     
    385300   924.68683     -21682.859      6724.9433      48.731617      2.3577398     -151005.45     -148816.94    
    385400   891.84362      91584.486      6724.9433      48.731617      2.3577398     -150952.69     -148841.91    
    385500   854.4592       20076.882      6724.9433      48.731617      2.3577398     -150994.06     -148971.76    
    385600   867.35536      15176.673      6724.9433      48.731617      2.3577398     -151052.14     -148999.31    
    385700   911.10781     -26642.871      6724.9433      48.731617      2.3577398     -151035.67     -148879.29    
    385800   907.21619      11777.151      6724.9433      48.731617      2.3577398     -150963.76     -148816.59    
    385900   877.94114     -6762.5347      6724.9433      48.731617      2.3577398     -150893.81     -148815.93    
    386000   904.87322      46821.428      6724.9433      48.731617      2.3577398     -150990.11     -148848.49    
    386100   923.80361      50136.683      6724.9433      48.731617      2.3577398     -151064.49     -148878.06    
    386200   889.80209     -7379.7384      6724.9433      48.731617      2.3577398     -151043.82     -148937.87    
    386300   861.73783      65743.179      6724.9433      48.731617      2.3577398     -151087.79     -149048.27    
    386400   836.55691      6892.1131      6724.9433      48.731617      2.3577398     -151014.11     -149034.18    
    386500   886.26032      44177.074      6724.9433      48.731617      2.3577398     -150971.79     -148874.22    
    386600   874.39966     -41335.9        6724.9433      48.731617      2.3577398     -150894.27     -148824.78    
    386700   892.53013     -8086.2947      6724.9433      48.731617      2.3577398     -150964.43     -148852.02    
    386800   910.37404      6588.8954      6724.9433      48.731617      2.3577398     -151044.24     -148889.6     
    386900   873.08519      41546.282      6724.9433      48.731617      2.3577398     -150982.76     -148916.37    
    387000   882.34948      3193.6067      6724.9433      48.731617      2.3577398     -150941.73     -148853.42    
    387100   936.09516      14054.578      6724.9433      48.731617      2.3577398     -150956.69     -148741.18    
    387200   956.90416      15991.808      6724.9433      48.731617      2.3577398     -151024.69     -148759.92    
    387300   901.93333      6962.051       6724.9433      48.731617      2.3577398     -151048.67     -148914.01    
    387400   850.47885      7461.2435      6724.9433      48.731617      2.3577398     -150969.05     -148956.17    
    387500   899.01899      67547.664      6724.9433      48.731617      2.3577398     -151027.52     -148899.76    
    387600   914.16687     -14352.387      6724.9433      48.731617      2.3577398     -150992.53     -148828.91    
    387700   893.15819     -8916.5966      6724.9433      48.731617      2.3577398     -150901.41     -148787.52    
    387800   925.56686      22742.85       6724.9433      48.731617      2.3577398     -150971.9      -148781.3     
    387900   935.92244     -3422.7003      6724.9433      48.731617      2.3577398     -151069.05     -148853.94    
    388000   895.09306      5250.9835      6724.9433      48.731617      2.3577398     -151051.42     -148932.95    
    388100   874.98757      11336.466      6724.9433      48.731617      2.3577398     -151027.72     -148956.83    
    388200   899.997        40212.117      6724.9433      48.731617      2.3577398     -150986.84     -148856.77    
    388300   923.13284     -3112.0598      6724.9433      48.731617      2.3577398     -150914.11     -148729.27    
    388400   913.93851      44914.72       6724.9433      48.731617      2.3577398     -150904.82     -148741.75    
    388500   889.09738      43055.27       6724.9433      48.731617      2.3577398     -150903.59     -148799.31    
    388600   896.54804      48280.769      6724.9433      48.731617      2.3577398     -150969.96     -148848.04    
    388700   906.06612      73635.087      6724.9433      48.731617      2.3577398     -151073.23     -148928.79    
    388800   865.30958      18128.514      6724.9433      48.731617      2.3577398     -151128.08     -149080.09    
    388900   869.40855      45182.57       6724.9433      48.731617      2.3577398     -151075.93     -149018.24    
    389000   877.5735       15595.686      6724.9433      48.731617      2.3577398     -150976.68     -148899.67    
    389100   904.11338      16409.163      6724.9433      48.731617      2.3577398     -150986.19     -148846.36    
    389200   924.58095      5488.788       6724.9433      48.731617      2.3577398     -151010.19     -148821.93    
    389300   882.16773      44640.395      6724.9433      48.731617      2.3577398     -150915.79     -148827.91    
    389400   870.02402      64124.865      6724.9433      48.731617      2.3577398     -150932.58     -148873.44    
    389500   883.77894      1762.7618      6724.9433      48.731617      2.3577398     -150995.04     -148903.34    
    389600   901.13416      6997.0537      6724.9433      48.731617      2.3577398     -151015.75     -148882.98    
    389700   885.10268      22953.495      6724.9433      48.731617      2.3577398     -150884        -148789.17    
    389800   948.12557      94339.485      6724.9433      48.731617      2.3577398     -150942.73     -148698.74    
    389900   914.81176      63850.257      6724.9433      48.731617      2.3577398     -150918.35     -148753.21    
    390000   891.07966      10960.377      6724.9433      48.731617      2.3577398     -151053.53     -148944.55    
    390100   871.57084     -2572.2514      6724.9433      48.731617      2.3577398     -151013.69     -148950.89    
    390200   911.17764      820.28344      6724.9433      48.731617      2.3577398     -151029.25     -148872.71    
    390300   886.85657      8532.3832      6724.9433      48.731617      2.3577398     -150899.77     -148800.79    
    390400   910.44237      73821.5        6724.9433      48.731617      2.3577398     -150892.54     -148737.74    
    390500   903.6439       30319.458      6724.9433      48.731617      2.3577398     -150869.99     -148731.28    
    390600   893.18602      21344.519      6724.9433      48.731617      2.3577398     -150982.21     -148868.25    
    390700   904.27208      25650.497      6724.9433      48.731617      2.3577398     -151078.05     -148937.85    
    390800   858.83173      55519.616      6724.9433      48.731617      2.3577398     -150973.33     -148940.68    
    390900   910.96323      40419.046      6724.9433      48.731617      2.3577398     -151011.41     -148855.37    
    391000   933.71134      27486.472      6724.9433      48.731617      2.3577398     -150932.21     -148722.34    
    391100   919.6776       56611.385      6724.9433      48.731617      2.3577398     -150930.36     -148753.7     
    391200   892.37047      93559.205      6724.9433      48.731617      2.3577398     -150940.51     -148828.48    
    391300   879.4052       75509.086      6724.9433      48.731617      2.3577398     -150959.05     -148877.7     
    391400   842.96653      12723.109      6724.9433      48.731617      2.3577398     -150878.39     -148883.29    
    391500   922.38161     -16485.013      6724.9433      48.731617      2.3577398     -151022.89     -148839.83    
    391600   913.82181      44171.538      6724.9433      48.731617      2.3577398     -150994.63     -148831.83    
    391700   873.48317      90203.627      6724.9433      48.731617      2.3577398     -150868.24     -148800.91    
    391800   958.20243      66504.779      6724.9433      48.731617      2.3577398     -151017.46     -148749.62    
    391900   930.06366     -6049.0453      6724.9433      48.731617      2.3577398     -150939.25     -148738.01    
    392000   911.10559      24766.869      6724.9433      48.731617      2.3577398     -151008.94     -148852.57    
    392100   933.85366      71337.303      6724.9433      48.731617      2.3577398     -151118.79     -148908.58    
    392200   887.02036      65711.646      6724.9433      48.731617      2.3577398     -150985.14     -148885.77    
    392300   950.78404      91285.811      6724.9433      48.731617      2.3577398     -150977.17     -148726.89    
    392400   898.7852      -58904.22       6724.9433      48.731617      2.3577398     -150824.51     -148697.3     
    392500   900.12952     -14467.317      6724.9433      48.731617      2.3577398     -150890.08     -148759.68    
    392600   855.92191      25728.644      6724.9433      48.731617      2.3577398     -150884.07     -148858.31    
    392700   898.30304      33127.69       6724.9433      48.731617      2.3577398     -151022.85     -148896.78    
    392800   864.89126     -36792.754      6724.9433      48.731617      2.3577398     -150946.71     -148899.72    
    392900   944.25108      2554.4918      6724.9433      48.731617      2.3577398     -150980.76     -148745.94    
    393000   916.20265      50926.11       6724.9433      48.731617      2.3577398     -150845.65     -148677.21    
    393100   887.0518       41545.712      6724.9433      48.731617      2.3577398     -150861.71     -148762.27    
    393200   908.95142      61092.288      6724.9433      48.731617      2.3577398     -151004.15     -148852.88    
    393300   890.39477      73322.616      6724.9433      48.731617      2.3577398     -150984.39     -148877.03    
    393400   880.9763      -4149.2007      6724.9433      48.731617      2.3577398     -150952.07     -148867.01    
    393500   895.36038      6320.9269      6724.9433      48.731617      2.3577398     -150955.84     -148836.73    
    393600   936.35537      66740.086      6724.9433      48.731617      2.3577398     -150923.58     -148707.45    
    393700   941.33651      17032.033      6724.9433      48.731617      2.3577398     -150836.84     -148608.92    
    393800   935.67186     -15938.2        6724.9433      48.731617      2.3577398     -150908.73     -148694.22    
    393900   917.50646      19459.392      6724.9433      48.731617      2.3577398     -150942.74     -148771.22    
    394000   885.29721     -9006.2609      6724.9433      48.731617      2.3577398     -150947.04     -148851.75    
    394100   880.04471      34444.151      6724.9433      48.731617      2.3577398     -150980.75     -148897.9     
    394200   841.31672      40878.09       6724.9433      48.731617      2.3577398     -150949.17     -148957.98    
    394300   861.09083      64316.927      6724.9433      48.731617      2.3577398     -151052.53     -149014.53    
    394400   860.64811     -34940.836      6724.9433      48.731617      2.3577398     -151021.92     -148984.97    
    394500   887.30378      23623.212      6724.9433      48.731617      2.3577398     -150941.41     -148841.37    
    394600   937.38406      80459.568      6724.9433      48.731617      2.3577398     -150978.77     -148760.2     
    394700   905.38331      4764.9398      6724.9433      48.731617      2.3577398     -150931.11     -148788.28    
    394800   889.50722      30624.883      6724.9433      48.731617      2.3577398     -150977.91     -148872.66    
    394900   894.27497      42801.036      6724.9433      48.731617      2.3577398     -151133.02     -149016.49    
    395000   860.10057      8418.7137      6724.9433      48.731617      2.3577398     -151045.43     -149009.77    
    395100   866.94029      48191.592      6724.9433      48.731617      2.3577398     -150986.24     -148934.4     
    395200   906.3804       16453.266      6724.9433      48.731617      2.3577398     -151019.8      -148874.61    
    395300   926.68797     -5103.9197      6724.9433      48.731617      2.3577398     -151001.64     -148808.39    
    395400   899.00935      66555.253      6724.9433      48.731617      2.3577398     -150907.25     -148779.51    
    395500   917.51456      48935.09       6724.9433      48.731617      2.3577398     -151018.21     -148846.67    
    395600   895.1326       53310.806      6724.9433      48.731617      2.3577398     -151085.49     -148966.93    
    395700   896.42345      24984.191      6724.9433      48.731617      2.3577398     -151078.04     -148956.42    
    395800   906.00995      40269.914      6724.9433      48.731617      2.3577398     -150977.94     -148833.63    
    395900   912.78313      6807.6387      6724.9433      48.731617      2.3577398     -150964.87     -148804.53    
    396000   951.72054      68832.291      6724.9433      48.731617      2.3577398     -151088.76     -148836.27    
    396100   900.01465      67169.559      6724.9433      48.731617      2.3577398     -151013.88     -148883.75    
    396200   876.70453      39192.45       6724.9433      48.731617      2.3577398     -150930.88     -148855.92    
    396300   909.52412     -11550.578      6724.9433      48.731617      2.3577398     -150827.14     -148674.52    
    396400   962.20323      17069.742      6724.9433      48.731617      2.3577398     -150927.5      -148650.2     
    396500   910.13363      51786.493      6724.9433      48.731617      2.3577398     -150915.58     -148761.51    
    396600   930.66309      50335.854      6724.9433      48.731617      2.3577398     -151021.96     -148819.3     
    396700   898.22158      55988.642      6724.9433      48.731617      2.3577398     -150996.35     -148870.47    
    396800   888.63112      29158.689      6724.9433      48.731617      2.3577398     -151001.88     -148898.7     
    396900   903.95935      34883.194      6724.9433      48.731617      2.3577398     -150980.26     -148840.8     
    397000   919.171        31447.609      6724.9433      48.731617      2.3577398     -150888.21     -148712.75    
    397100   953.46278      58597.106      6724.9433      48.731617      2.3577398     -150951.2      -148694.58    
    397200   888.14485     -28249.987      6724.9433      48.731617      2.3577398     -150904.49     -148802.46    
    397300   881.47376      31146.818      6724.9433      48.731617      2.3577398     -151016.02     -148929.78    
    397400   880.24314     -1123.5487      6724.9433      48.731617      2.3577398     -151062.95     -148979.63    
    397500   890.74367      26138.827      6724.9433      48.731617      2.3577398     -151032.78     -148924.6     
    397600   898.53368      28968.157      6724.9433      48.731617      2.3577398     -150987.92     -148861.3     
    397700   908.16185      59181.406      6724.9433      48.731617      2.3577398     -150985.63     -148836.23    
    397800   888.94383      59893.471      6724.9433      48.731617      2.3577398     -150923.45     -148819.53    
    397900   913.13238      44303.574      6724.9433      48.731617      2.3577398     -150996.53     -148835.36    
    398000   889.31839     -4858.4238      6724.9433      48.731617      2.3577398     -151016.96     -148912.15    
    398100   877.5659       49676.341      6724.9433      48.731617      2.3577398     -151024.75     -148947.76    
    398200   906.57975      1799.4134      6724.9433      48.731617      2.3577398     -151010.57     -148864.91    
    398300   918.44858      79333.283      6724.9433      48.731617      2.3577398     -150911.5      -148737.75    
    398400   918.11251      40439.34       6724.9433      48.731617      2.3577398     -150893.62     -148720.66    
    398500   917.39648      23652.444      6724.9433      48.731617      2.3577398     -150953.54     -148782.28    
    398600   909.22936     -46193.573      6724.9433      48.731617      2.3577398     -151033.66     -148881.73    
    398700   877.59922      3958.0705      6724.9433      48.731617      2.3577398     -150990.4      -148913.33    
    398800   877.53222     -18568.519      6724.9433      48.731617      2.3577398     -150961.11     -148884.2     
    398900   885.35689      73147.377      6724.9433      48.731617      2.3577398     -150944.49     -148849.06    
    399000   926.50109      34501.515      6724.9433      48.731617      2.3577398     -150971.85     -148779.04    
    399100   947.44991      54233.743      6724.9433      48.731617      2.3577398     -150932.79     -148690.4     
    399200   926.28023     -8848.7106      6724.9433      48.731617      2.3577398     -150859.21     -148666.92    
    399300   895.29797      31499.457      6724.9433      48.731617      2.3577398     -150965.68     -148846.72    
    399400   899.22923      19975.806      6724.9433      48.731617      2.3577398     -151030.61     -148902.34    
    399500   857.64595      70766.496      6724.9433      48.731617      2.3577398     -150944.88     -148915.04    
    399600   928.37888      71146.116      6724.9433      48.731617      2.3577398     -151037.22     -148839.96    
    399700   948.54546     -3048.4331      6724.9433      48.731617      2.3577398     -150963.7      -148718.72    
    399800   921.42798      68631.213      6724.9433      48.731617      2.3577398     -150859.47     -148678.67    
    399900   893.13824      14291.445      6724.9433      48.731617      2.3577398     -150950.1      -148836.25    
    400000   897.49214      105708.15      6724.9433      48.731617      2.3577398     -151055.86     -148931.71    
    400011   852.36261      40642.314      6724.9433      48.731617      2.3577398     -150953.17     -148935.83    
Loop time of 14858 on 64 procs for 400000 steps with 795 atoms

Performance: 0.582 ns/day, 41.272 hours/ns, 26.922 timesteps/s
99.7% CPU use with 64 MPI tasks x 1 OpenMP threads

MPI task timing breakdown:
Section |  min time  |  avg time  |  max time  |%varavg| %total
---------------------------------------------------------------
Pair    | 7783.1     | 10841      | 13288      |1546.5 | 72.97
Neigh   | 91.226     | 128.05     | 155.09     | 163.4 |  0.86
Comm    | 231.52     | 2560.5     | 5301.2     |2980.4 | 17.23
Output  | 0.50291    | 0.61208    | 0.85098    |   8.9 |  0.00
Modify  | 1155.5     | 1324.6     | 1740.8     | 403.5 |  8.91
Other   |            | 2.967      |            |       |  0.02

Nlocal:        12.4219 ave          15 max           2 min
Histogram: 1 1 1 1 2 2 7 6 13 30
Nghost:         2129.3 ave        2379 max        1836 min
Histogram: 13 3 0 1 9 5 13 5 4 11
Neighs:        6957.61 ave        9115 max         796 min
Histogram: 2 2 0 1 5 1 10 10 18 15

Total # of neighbors = 445287
Ave neighs/atom = 560.10943
Neighbor list builds = 12087
Dangerous builds = 0

write_data graphene_single_layer_ReaxFF_795_C_temp_900K.data ### MODIFY FILE NAME ###
System init for write_data ...
Total wall time: 4:07:40
