
# System definition
read_data graphene_single_layer_x-45_y-45_795_C.data ### MODIFY FILE NAME ###
Reading data file ...
  orthogonal box = (-1.4464652 -1.4423034 -1.42) to (47.285152 47.149102 1.42)
  8 by 8 by 1 MPI processor grid
  reading atoms ...
  795 atoms
  reading velocities ...
  795 velocities
  read_data CPU = 0.044 seconds

pair_style reax/c NULL
pair_coeff * * ffield.reax.cho C
Reading potential file ffield.reax.cho with DATE: 2011-02-18
fix qeq_reax all qeq/reax 1 0.0 10.0 1.0e-6 reax/c


# Minimization
timestep 0.25
min_style cg
thermo 100
thermo_style custom step temp press vol lx density pe etotal
dump 2 all custom 1000 graphene_single_layer_ReaxFF_795_C_temp_60K.lammpstrj id type x y z ### MODIFY FILE NAME ###
minimize 1.0e-6 1.0e-6 100 1000

CITE-CITE-CITE-CITE-CITE-CITE-CITE-CITE-CITE-CITE-CITE-CITE-CITE

Your simulation uses code contributions which should be cited:

- pair reaxff command:

@Article{Aktulga12,
 author = {H. M. Aktulga, J. C. Fogarty, S. A. Pandit, A. Y. Grama},
 title = {Parallel reactive molecular dynamics: Numerical methods and algorithmic techniques},
 journal = {Parallel Computing},
 year =    2012,
 volume =  38,
 pages =   {245--259}
}

- fix qeq/reaxff command:

@Article{Aktulga12,
 author = {H. M. Aktulga, J. C. Fogarty, S. A. Pandit, A. Y. Grama},
 title = {Parallel reactive molecular dynamics: Numerical methods and algorithmic techniques},
 journal = {Parallel Computing},
 year =    2012,
 volume =  38,
 pages =   {245--259}
}

CITE-CITE-CITE-CITE-CITE-CITE-CITE-CITE-CITE-CITE-CITE-CITE-CITE

WARNING: Using 'neigh_modify every 1 delay 0 check yes' setting during minimization (src/min.cpp:187)
Neighbor list info ...
  update every 1 steps, delay 0 steps, check yes
  max neighbors/atom: 10000, page size: 100000
  master list distance cutoff = 10.4
  ghost atom cutoff = 10.4
  binsize = 5.2, bins = 10 10 1
  2 neighbor lists, perpetual/occasional/extra = 2 0 0
  (1) pair reax/c, perpetual
      attributes: half, newton off, ghost
      pair build: half/bin/newtoff/ghost
      stencil: full/ghost/bin/3d
      bin: standard
  (2) fix qeq/reax, perpetual, copy from (1)
      attributes: half, newton off
      pair build: copy
      stencil: none
      bin: none
Per MPI rank memory allocation (min/avg/max) = 36.37 | 41.41 | 47.38 Mbytes
   Step          Temp          Press          Volume           Lx          Density         PotEng         TotEng    
         0   923            34054.396      6724.9433      48.731617      2.3577398     -151766.67     -149582.14    
        11   923            35396.792      6724.9433      48.731617      2.3577398     -151904.55     -149720.03    
Loop time of 2.13328 on 64 procs for 11 steps with 795 atoms

99.2% CPU use with 64 MPI tasks x 1 OpenMP threads

Minimization stats:
  Stopping criterion = energy tolerance
  Energy initial, next-to-last, final = 
     -151766.666472543  -151904.508881892  -151904.547898656
  Force two-norm initial, final = 279.94165 356.09863
  Force max component initial, final = 137.99181 55.448555
  Final line search alpha, max atom move = 0.00038853166 0.021543519
  Iterations, force evaluations = 11 32

MPI task timing breakdown:
Section |  min time  |  avg time  |  max time  |%varavg| %total
---------------------------------------------------------------
Pair    | 0.76925    | 1.2446     | 1.7346     |  17.9 | 58.34
Neigh   | 0.014464   | 0.018666   | 0.024167   |   1.9 |  0.87
Comm    | 0.039443   | 0.47742    | 0.81332    |  24.8 | 22.38
Output  | 0          | 0          | 0          |   0.0 |  0.00
Modify  | 0.29531    | 0.30076    | 0.30481    |   0.5 | 14.10
Other   |            | 0.09186    |            |       |  4.31

Nlocal:        12.4219 ave          15 max          10 min
Histogram: 15 0 0 0 22 0 12 0 0 15
Nghost:        2194.12 ave        2559 max        1869 min
Histogram: 2 8 9 4 12 12 5 4 6 2
Neighs:        6807.34 ave        8856 max        4476 min
Histogram: 4 8 3 7 7 13 5 2 0 15

Total # of neighbors = 435670
Ave neighs/atom = 548.01258
Neighbor list builds = 1
Dangerous builds = 0

fix 1 all nvt temp 60.0 60.0 $(100.0*dt)  ### MODIFY INIT TEMP, FINAL TEMP ###
fix 1 all nvt temp 60.0 60.0 25  
run 400000
Per MPI rank memory allocation (min/avg/max) = 35.25 | 40.29 | 46.26 Mbytes
   Step          Temp          Press          Volume           Lx          Density         PotEng         TotEng    
        11   923            35396.792      6724.9433      48.731617      2.3577398     -151904.55     -149720.03    
       100   362.95113      49505.737      6724.9433      48.731617      2.3577398     -151445.67     -150586.65    
       200   207.70561      87524.493      6724.9433      48.731617      2.3577398     -151851.42     -151359.83    
       300   165.7         -59990.105      6724.9433      48.731617      2.3577398     -152221.15     -151828.97    
       400   129.69456      55305.942      6724.9433      48.731617      2.3577398     -152428.39     -152121.43    
       500   122.96219     -18971.154      6724.9433      48.731617      2.3577398     -152676.59     -152385.57    
       600   83.351188      31183.912      6724.9433      48.731617      2.3577398     -152740.37     -152543.1     
       700   73.570456      8264.3466      6724.9433      48.731617      2.3577398     -152824.98     -152650.85    
       800   57.064418      28989.758      6724.9433      48.731617      2.3577398     -152844.75     -152709.69    
       900   54.738283      30592.006      6724.9433      48.731617      2.3577398     -152858.84     -152729.28    
      1000   53.250875      3908.6536      6724.9433      48.731617      2.3577398     -152841.14     -152715.11    
      1100   55.976625      12055.061      6724.9433      48.731617      2.3577398     -152813.3      -152680.81    
      1200   67.771945      13223.339      6724.9433      48.731617      2.3577398     -152817.85     -152657.45    
      1300   65.250882      18475.178      6724.9433      48.731617      2.3577398     -152814.97     -152660.54    
      1400   58.993167      4801.5767      6724.9433      48.731617      2.3577398     -152824.18     -152684.56    
      1500   54.086519      34400.309      6724.9433      48.731617      2.3577398     -152832.61     -152704.6     
      1600   52.269732      16485.616      6724.9433      48.731617      2.3577398     -152830.19     -152706.48    
      1700   61.667813      24648.813      6724.9433      48.731617      2.3577398     -152837.01     -152691.06    
      1800   66.727833      21149.065      6724.9433      48.731617      2.3577398     -152829.24     -152671.31    
      1900   64.097076      50855.461      6724.9433      48.731617      2.3577398     -152818.75     -152667.04    
      2000   61.405176      8561.5241      6724.9433      48.731617      2.3577398     -152825.75     -152680.41    
      2100   58.454038      36223.898      6724.9433      48.731617      2.3577398     -152833.25     -152694.9     
      2200   56.663717      1220.5785      6724.9433      48.731617      2.3577398     -152833.58     -152699.47    
      2300   58.98008       42694.061      6724.9433      48.731617      2.3577398     -152828.81     -152689.22    
      2400   62.185359      14296.505      6724.9433      48.731617      2.3577398     -152822.53     -152675.35    
      2500   61.690298      24441.974      6724.9433      48.731617      2.3577398     -152819.67     -152673.66    
      2600   56.800688      15825.932      6724.9433      48.731617      2.3577398     -152816.92     -152682.49    
      2700   59.399536      19177.947      6724.9433      48.731617      2.3577398     -152833.31     -152692.72    
      2800   58.025583      6076.2206      6724.9433      48.731617      2.3577398     -152832.6      -152695.26    
      2900   58.224226      22110.471      6724.9433      48.731617      2.3577398     -152826.81     -152689.01    
      3000   63.461821      13129.564      6724.9433      48.731617      2.3577398     -152828.5      -152678.31    
      3100   67.186071      26644.518      6724.9433      48.731617      2.3577398     -152832.43     -152673.41    
      3200   60.222192      31469.642      6724.9433      48.731617      2.3577398     -152825.9      -152683.37    
      3300   57.112966      34861.796      6724.9433      48.731617      2.3577398     -152830.17     -152695       
      3400   57.581376      22629.115      6724.9433      48.731617      2.3577398     -152833.67     -152697.38    
      3500   59.229622      22167.273      6724.9433      48.731617      2.3577398     -152828.63     -152688.45    
      3600   62.310635      32273.987      6724.9433      48.731617      2.3577398     -152824.75     -152677.27    
      3700   62.949465      11001.127      6724.9433      48.731617      2.3577398     -152822.76     -152673.77    
      3800   60.183719      30912.509      6724.9433      48.731617      2.3577398     -152822.37     -152679.92    
      3900   55.429092      15716.591      6724.9433      48.731617      2.3577398     -152819.3      -152688.11    
      4000   58.540678      26990.91       6724.9433      48.731617      2.3577398     -152831.54     -152692.99    
      4100   59.112857     -11156.962      6724.9433      48.731617      2.3577398     -152830.78     -152690.87    
      4200   58.681233      50015.029      6724.9433      48.731617      2.3577398     -152824.01     -152685.13    
      4300   62.799353      6387.9212      6724.9433      48.731617      2.3577398     -152827.78     -152679.15    
      4400   60.064858      50419.499      6724.9433      48.731617      2.3577398     -152820.25     -152678.09    
      4500   63.949529     -10714.287      6724.9433      48.731617      2.3577398     -152833.8      -152682.44    
      4600   61.965885      31844.209      6724.9433      48.731617      2.3577398     -152836.07     -152689.41    
      4700   57.583463      31255.358      6724.9433      48.731617      2.3577398     -152829.62     -152693.33    
      4800   59.359301      35826.301      6724.9433      48.731617      2.3577398     -152830.8      -152690.31    
      4900   59.106271      153.96302      6724.9433      48.731617      2.3577398     -152820.86     -152680.97    
      5000   60.961027      34848.282      6724.9433      48.731617      2.3577398     -152817.79     -152673.51    
      5100   59.675116      12201.036      6724.9433      48.731617      2.3577398     -152817.15     -152675.91    
      5200   60.402402      25509.785      6724.9433      48.731617      2.3577398     -152828.6      -152685.65    
      5300   57.602066      17452.867      6724.9433      48.731617      2.3577398     -152830.6      -152694.27    
      5400   57.055002      27137.532      6724.9433      48.731617      2.3577398     -152831.12     -152696.08    
      5500   59.291692      35755.12       6724.9433      48.731617      2.3577398     -152829.35     -152689.02    
      5600   60.928806      15380.082      6724.9433      48.731617      2.3577398     -152823.74     -152679.54    
      5700   63.184173      43849.68       6724.9433      48.731617      2.3577398     -152825.01     -152675.47    
      5800   60.5129        1635.801       6724.9433      48.731617      2.3577398     -152822.07     -152678.85    
      5900   59.701863      23486.462      6724.9433      48.731617      2.3577398     -152827.99     -152686.69    
      6000   58.460622     -5789.9301      6724.9433      48.731617      2.3577398     -152833.83     -152695.47    
      6100   58.047819      30411.872      6724.9433      48.731617      2.3577398     -152836.52     -152699.14    
      6200   59.671093      13078.529      6724.9433      48.731617      2.3577398     -152834.71     -152693.49    
      6300   62.034903      16526.092      6724.9433      48.731617      2.3577398     -152829.37     -152682.55    
      6400   63.547725      26882.847      6724.9433      48.731617      2.3577398     -152824.89     -152674.49    
      6500   60.971251      16379.96       6724.9433      48.731617      2.3577398     -152820.75     -152676.44    
      6600   59.101861      34106.015      6724.9433      48.731617      2.3577398     -152825.14     -152685.26    
      6700   55.885013      18992.336      6724.9433      48.731617      2.3577398     -152825.1      -152692.83    
      6800   56.648966      37301.802      6724.9433      48.731617      2.3577398     -152828.47     -152694.4     
      6900   60.146094      8530.4527      6724.9433      48.731617      2.3577398     -152829.02     -152686.66    
      7000   61.697472      33040.436      6724.9433      48.731617      2.3577398     -152825.33     -152679.31    
      7100   62.022682      11227.753      6724.9433      48.731617      2.3577398     -152825.9      -152679.1     
      7200   59.987884      29506.089      6724.9433      48.731617      2.3577398     -152828.62     -152686.65    
      7300   59.867237      12160.14       6724.9433      48.731617      2.3577398     -152834.66     -152692.97    
      7400   59.063355      28876.687      6724.9433      48.731617      2.3577398     -152835.03     -152695.24    
      7500   56.44766       12667.303      6724.9433      48.731617      2.3577398     -152827.36     -152693.76    
      7600   58.877609      28742.646      6724.9433      48.731617      2.3577398     -152827.12     -152687.77    
      7700   60.303618      20698.294      6724.9433      48.731617      2.3577398     -152822.24     -152679.51    
      7800   60.961985      16682.344      6724.9433      48.731617      2.3577398     -152820.72     -152676.44    
      7900   62.361988      18587.086      6724.9433      48.731617      2.3577398     -152830.05     -152682.45    
      8000   60.4292        23308.061      6724.9433      48.731617      2.3577398     -152834.81     -152691.79    
      8100   56.245939      18253.448      6724.9433      48.731617      2.3577398     -152829.46     -152696.34    
      8200   57.225431      34859.283      6724.9433      48.731617      2.3577398     -152828.71     -152693.27    
      8300   62.652445      8753.2514      6724.9433      48.731617      2.3577398     -152831.58     -152683.3     
      8400   59.620755      1627.8642      6724.9433      48.731617      2.3577398     -152819.72     -152678.61    
      8500   59.114476      15786.044      6724.9433      48.731617      2.3577398     -152822.21     -152682.3     
      8600   58.836342      21730.348      6724.9433      48.731617      2.3577398     -152828.1      -152688.84    
      8700   57.5377        18321.361      6724.9433      48.731617      2.3577398     -152829.52     -152693.34    
      8800   58.977543      13719.126      6724.9433      48.731617      2.3577398     -152831.44     -152691.85    
      8900   62.130668      45445.362      6724.9433      48.731617      2.3577398     -152834.91     -152687.86    
      9000   61.342308      12209.782      6724.9433      48.731617      2.3577398     -152827.65     -152682.47    
      9100   62.834074      30978.674      6724.9433      48.731617      2.3577398     -152831.27     -152682.55    
      9200   62.765773      13854.11       6724.9433      48.731617      2.3577398     -152834.61     -152686.06    
      9300   59.08658       46695.561      6724.9433      48.731617      2.3577398     -152830.04     -152690.19    
      9400   59.281055      831.65705      6724.9433      48.731617      2.3577398     -152831.48     -152691.18    
      9500   59.322649      51107.679      6724.9433      48.731617      2.3577398     -152828.55     -152688.14    
      9600   60.945938      6459.4177      6724.9433      48.731617      2.3577398     -152827.15     -152682.9     
      9700   62.494808      52688.102      6724.9433      48.731617      2.3577398     -152829.58     -152681.67    
      9800   62.144344     -5041.146       6724.9433      48.731617      2.3577398     -152834.5      -152687.42    
      9900   57.373823      58887.968      6724.9433      48.731617      2.3577398     -152831.1      -152695.31    
     10000   56.130755      12072.197      6724.9433      48.731617      2.3577398     -152826.23     -152693.38    
     10100   61.794882      44883.293      6724.9433      48.731617      2.3577398     -152829.94     -152683.69    
     10200   62.8894       -1164.6001      6724.9433      48.731617      2.3577398     -152824.85     -152676.01    
     10300   61.157619      62363.261      6724.9433      48.731617      2.3577398     -152823.48     -152678.73    
     10400   60.224306     -1522.0347      6724.9433      48.731617      2.3577398     -152831.27     -152688.74    
     10500   57.479848      40189.836      6724.9433      48.731617      2.3577398     -152832.43     -152696.39    
     10600   56.836548      13719.94       6724.9433      48.731617      2.3577398     -152830.92     -152696.4     
     10700   59.443992      48492.095      6724.9433      48.731617      2.3577398     -152831.14     -152690.45    
     10800   63.688165      6686.0323      6724.9433      48.731617      2.3577398     -152831.61     -152680.87    
     10900   60.583026      43297.333      6724.9433      48.731617      2.3577398     -152821.94     -152678.55    
     11000   60.775171      20494.012      6724.9433      48.731617      2.3577398     -152827.47     -152683.63    
     11100   59.190599      29119.69       6724.9433      48.731617      2.3577398     -152828.67     -152688.58    
     11200   59.680258      15169.058      6724.9433      48.731617      2.3577398     -152829.67     -152688.42    
     11300   59.639307      9578.729       6724.9433      48.731617      2.3577398     -152825.01     -152683.86    
     11400   60.865932      23032.698      6724.9433      48.731617      2.3577398     -152825.03     -152680.97    
     11500   60.50546       10703.695      6724.9433      48.731617      2.3577398     -152825.64     -152682.44    
     11600   59.771618      22272.452      6724.9433      48.731617      2.3577398     -152828.23     -152686.77    
     11700   58.281513      18142.478      6724.9433      48.731617      2.3577398     -152831.4      -152693.46    
     11800   57.034198      24776.656      6724.9433      48.731617      2.3577398     -152831.4      -152696.42    
     11900   58.468167      18518.521      6724.9433      48.731617      2.3577398     -152829.08     -152690.7     
     12000   62.674407      33791.376      6724.9433      48.731617      2.3577398     -152831.39     -152683.05    
     12100   61.085645      13571.406      6724.9433      48.731617      2.3577398     -152824.25     -152679.68    
     12200   62.616052      21790.486      6724.9433      48.731617      2.3577398     -152829.86     -152681.66    
     12300   61.460674      29377.048      6724.9433      48.731617      2.3577398     -152835        -152689.53    
     12400   60.821619      30349.598      6724.9433      48.731617      2.3577398     -152837.34     -152693.39    
     12500   58.666602      7173.2461      6724.9433      48.731617      2.3577398     -152828.93     -152690.08    
     12600   59.850266      29444.355      6724.9433      48.731617      2.3577398     -152824.79     -152683.13    
     12700   57.357391      15884.52       6724.9433      48.731617      2.3577398     -152816.1      -152680.34    
     12800   59.257511      34815.378      6724.9433      48.731617      2.3577398     -152822.46     -152682.21    
     12900   60.543337      3679.4405      6724.9433      48.731617      2.3577398     -152829.38     -152686.09    
     13000   59.702727      12680.856      6724.9433      48.731617      2.3577398     -152831.08     -152689.78    
     13100   60.516387      15958.057      6724.9433      48.731617      2.3577398     -152832.57     -152689.34    
     13200   63.22982       28251.417      6724.9433      48.731617      2.3577398     -152837.45     -152687.8     
     13300   59.403423      21993.906      6724.9433      48.731617      2.3577398     -152829.45     -152688.86    
     13400   58.287771      23094.065      6724.9433      48.731617      2.3577398     -152827.35     -152689.39    
     13500   56.728436      25493.346      6724.9433      48.731617      2.3577398     -152820.45     -152686.18    
     13600   60.598693      21162.085      6724.9433      48.731617      2.3577398     -152825.88     -152682.45    
     13700   60.701915      30497.026      6724.9433      48.731617      2.3577398     -152826.53     -152682.87    
     13800   59.901061      18630.124      6724.9433      48.731617      2.3577398     -152829.15     -152687.37    
     13900   56.618661      34396.214      6724.9433      48.731617      2.3577398     -152825.38     -152691.38    
     14000   59.981791     -4458.6963      6724.9433      48.731617      2.3577398     -152834.1      -152692.13    
     14100   58.532454      26035.669      6724.9433      48.731617      2.3577398     -152828.12     -152689.59    
     14200   60.166257     -12942.083      6724.9433      48.731617      2.3577398     -152829.29     -152686.89    
     14300   59.03173       45282.089      6724.9433      48.731617      2.3577398     -152823.22     -152683.51    
     14400   60.501736      17065.695      6724.9433      48.731617      2.3577398     -152823.14     -152679.95    
     14500   61.333799      15304.891      6724.9433      48.731617      2.3577398     -152827.52     -152682.36    
     14600   57.625315      17149.807      6724.9433      48.731617      2.3577398     -152825.89     -152689.5     
     14700   57.617995      36397.378      6724.9433      48.731617      2.3577398     -152828.35     -152691.98    
     14800   59.149086      16778.361      6724.9433      48.731617      2.3577398     -152830.65     -152690.65    
     14900   58.303364      20457.707      6724.9433      48.731617      2.3577398     -152827.1      -152689.11    
     15000   61.511317      9355.3804      6724.9433      48.731617      2.3577398     -152831.93     -152686.35    
     15100   61.509935      27149.005      6724.9433      48.731617      2.3577398     -152831.05     -152685.47    
     15200   61.169284      28432.485      6724.9433      48.731617      2.3577398     -152833.47     -152688.7     
     15300   60.594856      21551.319      6724.9433      48.731617      2.3577398     -152833.73     -152690.32    
     15400   59.581702      10389.587      6724.9433      48.731617      2.3577398     -152830.63     -152689.61    
     15500   58.776837      8454.0583      6724.9433      48.731617      2.3577398     -152825.83     -152686.71    
     15600   61.331694      21324.798      6724.9433      48.731617      2.3577398     -152828.3      -152683.14    
     15700   60.433394      16024.88       6724.9433      48.731617      2.3577398     -152822.93     -152679.9     
     15800   60.293074      14196.269      6724.9433      48.731617      2.3577398     -152824.79     -152682.09    
     15900   59.327063      36960.988      6724.9433      48.731617      2.3577398     -152830.32     -152689.91    
     16000   57.542537      15502.805      6724.9433      48.731617      2.3577398     -152833.21     -152697.02    
     16100   58.652147      40596.258      6724.9433      48.731617      2.3577398     -152835.9      -152697.08    
     16200   58.622579      24473.662      6724.9433      48.731617      2.3577398     -152829.1      -152690.35    
     16300   61.249625      29289.216      6724.9433      48.731617      2.3577398     -152827.56     -152682.6     
     16400   61.976579      17489.131      6724.9433      48.731617      2.3577398     -152826.49     -152679.81    
     16500   61.388149      27958.223      6724.9433      48.731617      2.3577398     -152829.19     -152683.9     
     16600   60.690939      10162.238      6724.9433      48.731617      2.3577398     -152832.22     -152688.58    
     16700   61.82574       26872.408      6724.9433      48.731617      2.3577398     -152838.64     -152692.31    
     16800   60.29237       16191.676      6724.9433      48.731617      2.3577398     -152835.61     -152692.91    
     16900   58.422363      23499.843      6724.9433      48.731617      2.3577398     -152829.26     -152690.98    
     17000   58.59609       17808.282      6724.9433      48.731617      2.3577398     -152825.83     -152687.14    
     17100   60.074835      25579.559      6724.9433      48.731617      2.3577398     -152825.49     -152683.31    
     17200   60.035112      8878.1574      6724.9433      48.731617      2.3577398     -152822.28     -152680.19    
     17300   62.912531      32879.468      6724.9433      48.731617      2.3577398     -152832.95     -152684.05    
     17400   61.553586      5676.1621      6724.9433      48.731617      2.3577398     -152835.7      -152690.01    
     17500   57.918851      9204.6983      6724.9433      48.731617      2.3577398     -152833.17     -152696.09    
     17600   57.310019      35178.222      6724.9433      48.731617      2.3577398     -152832.48     -152696.84    
     17700   59.437573      13179.004      6724.9433      48.731617      2.3577398     -152831.64     -152690.96    
     17800   59.104275      9296.4087      6724.9433      48.731617      2.3577398     -152823.37     -152683.48    
     17900   61.777389      21833.545      6724.9433      48.731617      2.3577398     -152827.69     -152681.48    
     18000   60.810844      12576.674      6724.9433      48.731617      2.3577398     -152830.21     -152686.28    
     18100   59.161171      6128.8509      6724.9433      48.731617      2.3577398     -152833.45     -152693.43    
     18200   60.052529      32369.174      6724.9433      48.731617      2.3577398     -152837.01     -152694.88    
     18300   60.617013      20625.006      6724.9433      48.731617      2.3577398     -152833.34     -152689.88    
     18400   60.496403      23649.959      6724.9433      48.731617      2.3577398     -152827.45     -152684.27    
     18500   61.231995      49328.699      6724.9433      48.731617      2.3577398     -152825.87     -152680.95    
     18600   60.880195      8824.2895      6724.9433      48.731617      2.3577398     -152826.26     -152682.17    
     18700   59.884329      26266.249      6724.9433      48.731617      2.3577398     -152831.61     -152689.88    
     18800   59.243678      10441.835      6724.9433      48.731617      2.3577398     -152834.72     -152694.51    
     18900   61.050889      41462.708      6724.9433      48.731617      2.3577398     -152836.65     -152692.16    
     19000   61.543238      7526.4224      6724.9433      48.731617      2.3577398     -152828.07     -152682.41    
     19100   63.407015      52818.322      6724.9433      48.731617      2.3577398     -152825.78     -152675.71    
     19200   65.002489     -2021.9752      6724.9433      48.731617      2.3577398     -152832.57     -152678.73    
     19300   61.017758      29047.486      6724.9433      48.731617      2.3577398     -152830.77     -152686.35    
     19400   60.194236      25310.217      6724.9433      48.731617      2.3577398     -152833.36     -152690.9     
     19500   58.508644      20207.298      6724.9433      48.731617      2.3577398     -152831.12     -152692.64    
     19600   61.893659      13766.918      6724.9433      48.731617      2.3577398     -152835.23     -152688.75    
     19700   59.968106      58899.113      6724.9433      48.731617      2.3577398     -152819.76     -152677.83    
     19800   61.154183      15174.679      6724.9433      48.731617      2.3577398     -152823.44     -152678.7     
     19900   58.407045      34617.624      6724.9433      48.731617      2.3577398     -152823.23     -152685       
     20000   59.843432      17936.767      6724.9433      48.731617      2.3577398     -152829.88     -152688.24    
     20100   61.338984      64758.213      6724.9433      48.731617      2.3577398     -152835.62     -152690.45    
     20200   63.059065     -17381.309      6724.9433      48.731617      2.3577398     -152837.08     -152687.84    
     20300   61.957782      41591.866      6724.9433      48.731617      2.3577398     -152834.8      -152688.16    
     20400   59.965028      2457.8956      6724.9433      48.731617      2.3577398     -152830.59     -152688.66    
     20500   57.696807      31923.928      6724.9433      48.731617      2.3577398     -152825.51     -152688.96    
     20600   60.555677     -15493.344      6724.9433      48.731617      2.3577398     -152830.41     -152687.08    
     20700   61.561305      48791.093      6724.9433      48.731617      2.3577398     -152829.65     -152683.95    
     20800   62.531763      11808.899      6724.9433      48.731617      2.3577398     -152828.28     -152680.29    
     20900   58.834581      30714.698      6724.9433      48.731617      2.3577398     -152824.17     -152684.92    
     21000   61.529975      16776.036      6724.9433      48.731617      2.3577398     -152838.39     -152692.76    
     21100   66.984069      29956.43       6724.9433      48.731617      2.3577398     -152857.14     -152698.6     
     21200   71.703852      21866.757      6724.9433      48.731617      2.3577398     -152888.74     -152719.04    
     21300   66.185779      3592.9927      6724.9433      48.731617      2.3577398     -152901.71     -152745.06    
     21400   59.249675      14634.056      6724.9433      48.731617      2.3577398     -152905.43     -152765.2     
     21500   61.34879       12513.292      6724.9433      48.731617      2.3577398     -152923.72     -152778.52    
     21600   66.835366      9697.3395      6724.9433      48.731617      2.3577398     -152944.38     -152786.2     
     21700   70.764223      28571.125      6724.9433      48.731617      2.3577398     -152974.61     -152807.13    
     21800   68.968494     -1563.9298      6724.9433      48.731617      2.3577398     -153002.68     -152839.45    
     21900   73.144802      56537.7        6724.9433      48.731617      2.3577398     -153039.34     -152866.22    
     22000   62.793014     -3045.6214      6724.9433      48.731617      2.3577398     -153041.07     -152892.45    
     22100   58.000379      43097.957      6724.9433      48.731617      2.3577398     -153052.22     -152914.95    
     22200   57.371502     -1847.6567      6724.9433      48.731617      2.3577398     -153063.02     -152927.23    
     22300   55.337821      38627.376      6724.9433      48.731617      2.3577398     -153063.7      -152932.73    
     22400   58.944211     -6734.4322      6724.9433      48.731617      2.3577398     -153067.85     -152928.34    
     22500   58.036971      32645.199      6724.9433      48.731617      2.3577398     -153058.17     -152920.81    
     22600   59.890986     -27196.841      6724.9433      48.731617      2.3577398     -153054.64     -152912.89    
     22700   59.400379      35168.282      6724.9433      48.731617      2.3577398     -153052.2      -152911.61    
     22800   59.2491       -2664.7682      6724.9433      48.731617      2.3577398     -153056.37     -152916.14    
     22900   60.348232      26861.775      6724.9433      48.731617      2.3577398     -153066.41     -152923.58    
     23000   59.352302      2050.7831      6724.9433      48.731617      2.3577398     -153067.33     -152926.86    
     23100   57.826887      25716.68       6724.9433      48.731617      2.3577398     -153061.74     -152924.88    
     23200   61.060784      10416.218      6724.9433      48.731617      2.3577398     -153061.31     -152916.79    
     23300   61.186483      25064.367      6724.9433      48.731617      2.3577398     -153066.13     -152921.32    
     23400   60.853942      19358.735      6724.9433      48.731617      2.3577398     -153074.77     -152930.74    
     23500   59.75197       11729.639      6724.9433      48.731617      2.3577398     -153077.42     -152936       
     23600   57.532109     -3640.171       6724.9433      48.731617      2.3577398     -153074.89     -152938.72    
     23700   59.461984      6715.9161      6724.9433      48.731617      2.3577398     -153076.5      -152935.76    
     23800   64.514061      35910.376      6724.9433      48.731617      2.3577398     -153077.43     -152924.74    
     23900   60.407113     -5754.5513      6724.9433      48.731617      2.3577398     -153067.66     -152924.69    
     24000   60.406662      11380.221      6724.9433      48.731617      2.3577398     -153073.79     -152930.82    
     24100   59.009352      36437.874      6724.9433      48.731617      2.3577398     -153074.86     -152935.2     
     24200   58.28844       28755.47       6724.9433      48.731617      2.3577398     -153072.87     -152934.91    
     24300   61.178735      16322.938      6724.9433      48.731617      2.3577398     -153077.37     -152932.58    
     24400   58.215315      22317.793      6724.9433      48.731617      2.3577398     -153068.2      -152930.42    
     24500   59.129493      6946.0827      6724.9433      48.731617      2.3577398     -153070.75     -152930.8     
     24600   59.12574       17896.872      6724.9433      48.731617      2.3577398     -153078.33     -152938.39    
     24700   56.847216      16596.302      6724.9433      48.731617      2.3577398     -153080.32     -152945.78    
     24800   56.677414      42481.729      6724.9433      48.731617      2.3577398     -153074.43     -152940.28    
     24900   57.27689       5061.803       6724.9433      48.731617      2.3577398     -153066.52     -152930.96    
     25000   60.965161      26136.405      6724.9433      48.731617      2.3577398     -153071.12     -152926.83    
     25100   60.670405      10262.442      6724.9433      48.731617      2.3577398     -153071.57     -152927.98    
     25200   60.471253      32231.529      6724.9433      48.731617      2.3577398     -153077.14     -152934.02    
     25300   58.750367     -13729.399      6724.9433      48.731617      2.3577398     -153081.29     -152942.24    
     25400   58.858986      25886.525      6724.9433      48.731617      2.3577398     -153082.17     -152942.86    
     25500   60.11374      -4435.0089      6724.9433      48.731617      2.3577398     -153078.57     -152936.3     
     25600   59.94197       23118.102      6724.9433      48.731617      2.3577398     -153073.72     -152931.85    
     25700   59.785713      13241.596      6724.9433      48.731617      2.3577398     -153072.14     -152930.64    
     25800   62.118334      16913.744      6724.9433      48.731617      2.3577398     -153078.49     -152931.47    
     25900   62.674521      9005.868       6724.9433      48.731617      2.3577398     -153079.2      -152930.86    
     26000   61.705042      16336.102      6724.9433      48.731617      2.3577398     -153079.68     -152933.64    
     26100   59.054846      9641.3734      6724.9433      48.731617      2.3577398     -153077.9      -152938.13    
     26200   57.317505      11695.121      6724.9433      48.731617      2.3577398     -153075.01     -152939.36    
     26300   63.165383      22089.078      6724.9433      48.731617      2.3577398     -153080.19     -152930.69    
     26400   59.958631      29996.443      6724.9433      48.731617      2.3577398     -153068.69     -152926.78    
     26500   61.403847      6360.1673      6724.9433      48.731617      2.3577398     -153075.81     -152930.48    
     26600   57.374033      11006.845      6724.9433      48.731617      2.3577398     -153075.19     -152939.4     
     26700   56.02471       16057.804      6724.9433      48.731617      2.3577398     -153072.2      -152939.61    
     26800   60.396925      8771.661       6724.9433      48.731617      2.3577398     -153079.07     -152936.12    
     26900   62.120231      41672.379      6724.9433      48.731617      2.3577398     -153077.06     -152930.04    
     27000   61.277381      17681.688      6724.9433      48.731617      2.3577398     -153072.98     -152927.95    
     27100   59.368088      21333.166      6724.9433      48.731617      2.3577398     -153072.54     -152932.03    
     27200   58.108482     -2491.9029      6724.9433      48.731617      2.3577398     -153079.62     -152942.09    
     27300   60.957206      35947.809      6724.9433      48.731617      2.3577398     -153083.09     -152938.82    
     27400   59.799755     -3331.6525      6724.9433      48.731617      2.3577398     -153073.52     -152931.99    
     27500   61.494638      33506.903      6724.9433      48.731617      2.3577398     -153074.85     -152929.31    
     27600   59.766318     -995.77999      6724.9433      48.731617      2.3577398     -153073.81     -152932.35    
     27700   59.627092      31052.827      6724.9433      48.731617      2.3577398     -153076.07     -152934.94    
     27800   57.205374      8505.6642      6724.9433      48.731617      2.3577398     -153071.39     -152936       
     27900   60.61053       20371.059      6724.9433      48.731617      2.3577398     -153071.82     -152928.37    
     28000   62.668335     -4899.8621      6724.9433      48.731617      2.3577398     -153066.41     -152918.09    
     28100   62.288893      24855.51       6724.9433      48.731617      2.3577398     -153071.6      -152924.18    
     28200   60             23654.489      6724.9433      48.731617      2.3577398     -153074.84     -152932.84    
     28300   59.790373      28328.742      6724.9433      48.731617      2.3577398     -153078.3      -152936.79    
     28400   56.590879      5160.653       6724.9433      48.731617      2.3577398     -153072.71     -152938.78    
     28500   58.770916      24467.807      6724.9433      48.731617      2.3577398     -153073.21     -152934.11    
     28600   61.345689      23260.799      6724.9433      48.731617      2.3577398     -153070.4      -152925.21    
     28700   62.353236      17544.28       6724.9433      48.731617      2.3577398     -153073.37     -152925.8     
     28800   60.112527      21372.884      6724.9433      48.731617      2.3577398     -153077.47     -152935.2     
     28900   59.91621       13767.139      6724.9433      48.731617      2.3577398     -153079.45     -152937.64    
     29000   60.27957       14049.449      6724.9433      48.731617      2.3577398     -153077.63     -152934.97    
     29100   61.164822     -5382.6439      6724.9433      48.731617      2.3577398     -153075.73     -152930.97    
     29200   62.040927      25500.244      6724.9433      48.731617      2.3577398     -153073.71     -152926.88    
     29300   63.186999     -4404.0151      6724.9433      48.731617      2.3577398     -153072.77     -152923.23    
     29400   60.217791      18788.414      6724.9433      48.731617      2.3577398     -153073.19     -152930.67    
     29500   57.2899        4364.0641      6724.9433      48.731617      2.3577398     -153072.66     -152937.07    
     29600   58.289194      19881.044      6724.9433      48.731617      2.3577398     -153074.9      -152936.95    
     29700   62.214795      6178.7335      6724.9433      48.731617      2.3577398     -153079.7      -152932.46    
     29800   62.851117      43593.01       6724.9433      48.731617      2.3577398     -153072.22     -152923.47    
     29900   63.342285      14138.826      6724.9433      48.731617      2.3577398     -153073.19     -152923.27    
     30000   59.440303      21347.443      6724.9433      48.731617      2.3577398     -153072.62     -152931.94    
     30100   57.912103      14591.964      6724.9433      48.731617      2.3577398     -153069.81     -152932.75    
     30200   59.696169      26453.1        6724.9433      48.731617      2.3577398     -153073.37     -152932.08    
     30300   63.175626      17892.615      6724.9433      48.731617      2.3577398     -153079.93     -152930.4     
     30400   59.824369      19603.777      6724.9433      48.731617      2.3577398     -153073.51     -152931.92    
     30500   60.56189       1158.5347      6724.9433      48.731617      2.3577398     -153078.94     -152935.6     
     30600   59.330839      18786.017      6724.9433      48.731617      2.3577398     -153082.37     -152941.94    
     30700   58.253894      25739.645      6724.9433      48.731617      2.3577398     -153080.77     -152942.9     
     30800   57.915497      28221.024      6724.9433      48.731617      2.3577398     -153069.76     -152932.69    
     30900   62.635141      21881.189      6724.9433      48.731617      2.3577398     -153075.83     -152927.59    
     31000   59.95869       40952.025      6724.9433      48.731617      2.3577398     -153071.19     -152929.28    
     31100   59.6819        23562.715      6724.9433      48.731617      2.3577398     -153074.9      -152933.64    
     31200   58.9726        46193.98       6724.9433      48.731617      2.3577398     -153078.9      -152939.33    
     31300   56.075261      14460.551      6724.9433      48.731617      2.3577398     -153070.27     -152937.56    
     31400   59.293226      20333.446      6724.9433      48.731617      2.3577398     -153069.24     -152928.9     
     31500   61.626202     -1009.2188      6724.9433      48.731617      2.3577398     -153072.89     -152927.04    
     31600   61.142062      25176.373      6724.9433      48.731617      2.3577398     -153079.15     -152934.44    
     31700   61.536432      77.807895      6724.9433      48.731617      2.3577398     -153086.4      -152940.76    
     31800   58.332303      35023.365      6724.9433      48.731617      2.3577398     -153077.53     -152939.47    
     31900   57.653935      4913.0762      6724.9433      48.731617      2.3577398     -153070.89     -152934.44    
     32000   61.572527      30122.525      6724.9433      48.731617      2.3577398     -153076        -152930.27    
     32100   62.742277      20822.745      6724.9433      48.731617      2.3577398     -153079.57     -152931.07    
     32200   59.46704       51623.558      6724.9433      48.731617      2.3577398     -153073.81     -152933.07    
     32300   60.671701      5478.9392      6724.9433      48.731617      2.3577398     -153078.25     -152934.65    
     32400   59.058253      43276.257      6724.9433      48.731617      2.3577398     -153083.44     -152943.66    
     32500   55.002515     -10803.31       6724.9433      48.731617      2.3577398     -153081.36     -152951.18    
     32600   56.674496      15122.34       6724.9433      48.731617      2.3577398     -153079.66     -152945.52    
     32700   58.280508      6957.137       6724.9433      48.731617      2.3577398     -153075.85     -152937.92    
     32800   59.488456      27803.35       6724.9433      48.731617      2.3577398     -153073.07     -152932.27    
     32900   59.682007      3041.9819      6724.9433      48.731617      2.3577398     -153069.56     -152928.31    
     33000   59.534983      35544.179      6724.9433      48.731617      2.3577398     -153070.23     -152929.32    
     33100   59.825753     -7210.7516      6724.9433      48.731617      2.3577398     -153081.95     -152940.36    
     33200   57.887107      33878.027      6724.9433      48.731617      2.3577398     -153080.91     -152943.91    
     33300   58.532854      21686.065      6724.9433      48.731617      2.3577398     -153076.99     -152938.45    
     33400   61.369666      12416.743      6724.9433      48.731617      2.3577398     -153078.63     -152933.39    
     33500   60.926792      17825.113      6724.9433      48.731617      2.3577398     -153075.35     -152931.15    
     33600   59.764388      23429.669      6724.9433      48.731617      2.3577398     -153072.49     -152931.04    
     33700   59.889995      9656.4287      6724.9433      48.731617      2.3577398     -153074.67     -152932.92    
     33800   57.641874      8240.4705      6724.9433      48.731617      2.3577398     -153071.59     -152935.17    
     33900   58.158221     -3999.1901      6724.9433      48.731617      2.3577398     -153072.68     -152935.03    
     34000   59.223959      23438.584      6724.9433      48.731617      2.3577398     -153072.15     -152931.98    
     34100   59.916361      25610.057      6724.9433      48.731617      2.3577398     -153067.33     -152925.52    
     34200   62.260512      27581.862      6724.9433      48.731617      2.3577398     -153070.91     -152923.56    
     34300   58.691741      20322.87       6724.9433      48.731617      2.3577398     -153074.19     -152935.28    
     34400   56.551447      20296.087      6724.9433      48.731617      2.3577398     -153073.09     -152939.25    
     34500   59.518133      30664.633      6724.9433      48.731617      2.3577398     -153076.3      -152935.43    
     34600   61.986458      1230.8975      6724.9433      48.731617      2.3577398     -153079.67     -152932.96    
     34700   58.610055      49445.226      6724.9433      48.731617      2.3577398     -153070.79     -152932.07    
     34800   60.417015     -6659.7707      6724.9433      48.731617      2.3577398     -153075.38     -152932.38    
     34900   59.610334      23753.991      6724.9433      48.731617      2.3577398     -153075.38     -152934.3     
     35000   60.891275     -2226.6139      6724.9433      48.731617      2.3577398     -153079.9      -152935.79    
     35100   59.634235      40900.886      6724.9433      48.731617      2.3577398     -153075.59     -152934.45    
     35200   60.853155     -5186.2463      6724.9433      48.731617      2.3577398     -153070.83     -152926.81    
     35300   63.43192       31523.323      6724.9433      48.731617      2.3577398     -153073.75     -152923.62    
     35400   60.06534       5071.732       6724.9433      48.731617      2.3577398     -153074.2      -152932.04    
     35500   61.243114      7147.3555      6724.9433      48.731617      2.3577398     -153080.96     -152936.01    
     35600   59.711616      15829.374      6724.9433      48.731617      2.3577398     -153077.1      -152935.77    
     35700   59.375633      16166.637      6724.9433      48.731617      2.3577398     -153075.58     -152935.05    
     35800   61.907784      27829.897      6724.9433      48.731617      2.3577398     -153078.26     -152931.74    
     35900   63.429168      20325.02       6724.9433      48.731617      2.3577398     -153075.07     -152924.95    
     36000   60.81695       10780.947      6724.9433      48.731617      2.3577398     -153068.91     -152924.97    
     36100   58.870472      27735.602      6724.9433      48.731617      2.3577398     -153074.95     -152935.62    
     36200   57.331914      19630.896      6724.9433      48.731617      2.3577398     -153075.53     -152939.84    
     36300   60.219926      4051.9402      6724.9433      48.731617      2.3577398     -153079.97     -152937.44    
     36400   59.017957      26306.624      6724.9433      48.731617      2.3577398     -153071.91     -152932.23    
     36500   63.879525      20991.47       6724.9433      48.731617      2.3577398     -153073.21     -152922.03    
     36600   62.76502       20768.029      6724.9433      48.731617      2.3577398     -153071.67     -152923.12    
     36700   63.920885      16037.464      6724.9433      48.731617      2.3577398     -153078.93     -152927.64    
     36800   60.923918      33304.306      6724.9433      48.731617      2.3577398     -153077.29     -152933.1     
     36900   58.722429      11703.191      6724.9433      48.731617      2.3577398     -153075.61     -152936.63    
     37000   58.138672      7387.2948      6724.9433      48.731617      2.3577398     -153075.01     -152937.41    
     37100   58.540808      34350.111      6724.9433      48.731617      2.3577398     -153073.59     -152935.04    
     37200   58.582153      11253.759      6724.9433      48.731617      2.3577398     -153065.61     -152926.96    
     37300   60.690609      12008.499      6724.9433      48.731617      2.3577398     -153069.94     -152926.3     
     37400   59.439417      20250.753      6724.9433      48.731617      2.3577398     -153073.98     -152933.3     
     37500   58.767382      10118.208      6724.9433      48.731617      2.3577398     -153078.23     -152939.14    
     37600   58.175467      19263.723      6724.9433      48.731617      2.3577398     -153076.89     -152939.2     
     37700   63.065665     -1511.1694      6724.9433      48.731617      2.3577398     -153087.42     -152938.15    
     37800   58.323837      8689.5024      6724.9433      48.731617      2.3577398     -153075.48     -152937.44    
     37900   57.469901     -310.58686      6724.9433      48.731617      2.3577398     -153069.79     -152933.77    
     38000   57.738289      42429.255      6724.9433      48.731617      2.3577398     -153066.73     -152930.08    
     38100   62.313233      9650.0727      6724.9433      48.731617      2.3577398     -153067.12     -152919.64    
     38200   59.402597      15989.428      6724.9433      48.731617      2.3577398     -153059.01     -152918.41    
     38300   59.401751      14995.151      6724.9433      48.731617      2.3577398     -153067.8      -152927.21    
     38400   60.174068      24586.984      6724.9433      48.731617      2.3577398     -153075.08     -152932.66    
     38500   60.606286     -2204.2335      6724.9433      48.731617      2.3577398     -153079.5      -152936.05    
     38600   58.911749      17512.263      6724.9433      48.731617      2.3577398     -153080.05     -152940.62    
     38700   58.389632      14454.759      6724.9433      48.731617      2.3577398     -153080.36     -152942.17    
     38800   60.911042      13974.961      6724.9433      48.731617      2.3577398     -153077.35     -152933.19    
     38900   64.371391      21573.854      6724.9433      48.731617      2.3577398     -153078.41     -152926.06    
     39000   61.955499      33387.777      6724.9433      48.731617      2.3577398     -153075.24     -152928.6     
     39100   58.286613      16507.425      6724.9433      48.731617      2.3577398     -153073.84     -152935.89    
     39200   60.120403      29484.819      6724.9433      48.731617      2.3577398     -153079.94     -152937.65    
     39300   60.726026      13163.621      6724.9433      48.731617      2.3577398     -153080.11     -152936.38    
     39400   60.014761      47761.603      6724.9433      48.731617      2.3577398     -153077.03     -152934.99    
     39500   58.681311     -10896.676      6724.9433      48.731617      2.3577398     -153072.4      -152933.52    
     39600   61.282411      35339.788      6724.9433      48.731617      2.3577398     -153077.82     -152932.78    
     39700   60.766398      1040.1177      6724.9433      48.731617      2.3577398     -153077.54     -152933.72    
     39800   58.839164      23513.283      6724.9433      48.731617      2.3577398     -153077.9      -152938.64    
     39900   60.362206     -1962.0589      6724.9433      48.731617      2.3577398     -153081.75     -152938.89    
     40000   59.586555      25881.392      6724.9433      48.731617      2.3577398     -153076.34     -152935.31    
     40100   62.515832      11430.56       6724.9433      48.731617      2.3577398     -153074.73     -152926.77    
     40200   61.327601      25837.243      6724.9433      48.731617      2.3577398     -153071        -152925.85    
     40300   60.831441      9336.572       6724.9433      48.731617      2.3577398     -153075.77     -152931.8     
     40400   57.511955      26177.197      6724.9433      48.731617      2.3577398     -153071.02     -152934.9     
     40500   60.16184       11939.882      6724.9433      48.731617      2.3577398     -153075.9      -152933.52    
     40600   59.559256      12694.456      6724.9433      48.731617      2.3577398     -153075.13     -152934.17    
     40700   57.784378      12719.888      6724.9433      48.731617      2.3577398     -153072.53     -152935.77    
     40800   56.910749      11482.439      6724.9433      48.731617      2.3577398     -153074.3      -152939.61    
     40900   59.050208      23197.9        6724.9433      48.731617      2.3577398     -153085.56     -152945.8     
     41000   57.632686      22203.134      6724.9433      48.731617      2.3577398     -153080.77     -152944.36    
     41100   58.769493      10152.015      6724.9433      48.731617      2.3577398     -153072.73     -152933.63    
     41200   59.602085      40669.559      6724.9433      48.731617      2.3577398     -153070.82     -152929.75    
     41300   62.074046     -4784.1093      6724.9433      48.731617      2.3577398     -153075.53     -152928.62    
     41400   58.966007      10799.476      6724.9433      48.731617      2.3577398     -153073.25     -152933.69    
     41500   58.675083      6012.8623      6724.9433      48.731617      2.3577398     -153081.01     -152942.14    
     41600   55.797728      21664.068      6724.9433      48.731617      2.3577398     -153078.92     -152946.86    
     41700   55.317615      4226.9076      6724.9433      48.731617      2.3577398     -153073.37     -152942.45    
     41800   57.982688      19991.971      6724.9433      48.731617      2.3577398     -153076.37     -152939.13    
     41900   61.448301     -147.80206      6724.9433      48.731617      2.3577398     -153080.51     -152935.08    
     42000   59.880652      17765.676      6724.9433      48.731617      2.3577398     -153072.81     -152931.09    
     42100   59.685888      23503.224      6724.9433      48.731617      2.3577398     -153068.08     -152926.81    
     42200   63.3325        12367.568      6724.9433      48.731617      2.3577398     -153068.52     -152918.63    
     42300   62.8689        20922.115      6724.9433      48.731617      2.3577398     -153072.29     -152923.49    
     42400   57.868735      30263.096      6724.9433      48.731617      2.3577398     -153072.33     -152935.37    
     42500   60.298025      21488.309      6724.9433      48.731617      2.3577398     -153079.82     -152937.11    
     42600   58.266361      5034.8681      6724.9433      48.731617      2.3577398     -153076.19     -152938.29    
     42700   58.482111     -6415.6752      6724.9433      48.731617      2.3577398     -153072.8      -152934.39    
     42800   62.732775      32949.242      6724.9433      48.731617      2.3577398     -153075.37     -152926.89    
     42900   61.805026     -11777.937      6724.9433      48.731617      2.3577398     -153073.34     -152927.07    
     43000   59.905372      29146.987      6724.9433      48.731617      2.3577398     -153081.17     -152939.39    
     43100   59.711224      4119.6076      6724.9433      48.731617      2.3577398     -153081.36     -152940.04    
     43200   59.025897      17267.272      6724.9433      48.731617      2.3577398     -153074.74     -152935.04    
     43300   61.315163      4206.5336      6724.9433      48.731617      2.3577398     -153073.63     -152928.51    
     43400   61.07645       29665.489      6724.9433      48.731617      2.3577398     -153072.38     -152927.82    
     43500   60.008697      21694.264      6724.9433      48.731617      2.3577398     -153075.21     -152933.18    
     43600   55.82871       20490.595      6724.9433      48.731617      2.3577398     -153077.73     -152945.6     
     43700   60.87987       38956.654      6724.9433      48.731617      2.3577398     -153087.15     -152943.06    
     43800   60.163332      8013.5586      6724.9433      48.731617      2.3577398     -153078.73     -152936.34    
     43900   62.342762      25446.328      6724.9433      48.731617      2.3577398     -153078.82     -152931.27    
     44000   59.920227      18087.906      6724.9433      48.731617      2.3577398     -153073.92     -152932.11    
     44100   59.061105      19610.541      6724.9433      48.731617      2.3577398     -153077.57     -152937.79    
     44200   59.028287      3045.6579      6724.9433      48.731617      2.3577398     -153088.14     -152948.43    
     44300   56.636344      23123.712      6724.9433      48.731617      2.3577398     -153077.8      -152943.75    
     44400   58.065175      22383.083      6724.9433      48.731617      2.3577398     -153073.68     -152936.25    
     44500   60.217743      20713.074      6724.9433      48.731617      2.3577398     -153075.49     -152932.96    
     44600   60.783868      23352.209      6724.9433      48.731617      2.3577398     -153075.46     -152931.6     
     44700   60.342704      15061.321      6724.9433      48.731617      2.3577398     -153076.35     -152933.53    
     44800   58.321152      38119.693      6724.9433      48.731617      2.3577398     -153081.14     -152943.11    
     44900   57.339298      32080.335      6724.9433      48.731617      2.3577398     -153079.34     -152943.63    
     45000   57.721371      9720.1237      6724.9433      48.731617      2.3577398     -153072.18     -152935.56    
     45100   59.728057      37831.586      6724.9433      48.731617      2.3577398     -153071.94     -152930.58    
     45200   60.15378       4722.118       6724.9433      48.731617      2.3577398     -153073.61     -152931.24    
     45300   60.556259      7949.2464      6724.9433      48.731617      2.3577398     -153079.2      -152935.87    
     45400   58.392426      19145.111      6724.9433      48.731617      2.3577398     -153080.89     -152942.69    
     45500   58.417431      1435.3458      6724.9433      48.731617      2.3577398     -153079.9      -152941.64    
     45600   61.913604      20357.395      6724.9433      48.731617      2.3577398     -153075.17     -152928.63    
     45700   60.441974      8751.5889      6724.9433      48.731617      2.3577398     -153069.34     -152926.28    
     45800   59.762463      18385.492      6724.9433      48.731617      2.3577398     -153072.78     -152931.33    
     45900   59.784493      10445.781      6724.9433      48.731617      2.3577398     -153078.52     -152937.02    
     46000   58.185801      6010.2215      6724.9433      48.731617      2.3577398     -153078.16     -152940.45    
     46100   59.625489      17762.912      6724.9433      48.731617      2.3577398     -153075.07     -152933.95    
     46200   60.084796      12271.163      6724.9433      48.731617      2.3577398     -153066.81     -152924.6     
     46300   61.468102      8126.8326      6724.9433      48.731617      2.3577398     -153071.93     -152926.45    
     46400   60.35562       38310.22       6724.9433      48.731617      2.3577398     -153075.98     -152933.13    
     46500   58.10662       18202.255      6724.9433      48.731617      2.3577398     -153073.48     -152935.96    
     46600   58.952912      19414.108      6724.9433      48.731617      2.3577398     -153076.09     -152936.56    
     46700   60.012541      6908.7526      6724.9433      48.731617      2.3577398     -153077.3      -152935.27    
     46800   58.740676      14527.28       6724.9433      48.731617      2.3577398     -153074.79     -152935.76    
     46900   57.21368       14042.451      6724.9433      48.731617      2.3577398     -153072.6      -152937.19    
     47000   59.697756      11719.895      6724.9433      48.731617      2.3577398     -153078.8      -152937.51    
     47100   61.498423      13706.859      6724.9433      48.731617      2.3577398     -153072.9      -152927.35    
     47200   63.783866      13818.663      6724.9433      48.731617      2.3577398     -153072.52     -152921.55    
     47300   60.327521      6071.1843      6724.9433      48.731617      2.3577398     -153070.5      -152927.72    
     47400   59.233461      14340.02       6724.9433      48.731617      2.3577398     -153074.35     -152934.16    
     47500   58.136076     -6755.635       6724.9433      48.731617      2.3577398     -153074.1      -152936.51    
     47600   60.078956      9774.0797      6724.9433      48.731617      2.3577398     -153081.06     -152938.87    
     47700   58.96832       11599.65       6724.9433      48.731617      2.3577398     -153082.97     -152943.41    
     47800   56.147949      22198.997      6724.9433      48.731617      2.3577398     -153081.27     -152948.38    
     47900   58.128073      8917.254       6724.9433      48.731617      2.3577398     -153077.44     -152939.87    
     48000   59.755441      9378.4314      6724.9433      48.731617      2.3577398     -153074.22     -152932.79    
     48100   59.115368      22919.118      6724.9433      48.731617      2.3577398     -153070.93     -152931.02    
     48200   61.123142      37.358811      6724.9433      48.731617      2.3577398     -153075.81     -152931.15    
     48300   56.75393       22592.342      6724.9433      48.731617      2.3577398     -153070.72     -152936.4     
     48400   56.677705      11003.871      6724.9433      48.731617      2.3577398     -153077.22     -152943.08    
     48500   61.816607      29579.021      6724.9433      48.731617      2.3577398     -153087.17     -152940.87    
     48600   62.627492      18805.575      6724.9433      48.731617      2.3577398     -153078.12     -152929.9     
     48700   61.027717      22971.258      6724.9433      48.731617      2.3577398     -153071.13     -152926.69    
     48800   62.054884      25170.921      6724.9433      48.731617      2.3577398     -153077.72     -152930.85    
     48900   59.367272      12192.125      6724.9433      48.731617      2.3577398     -153076.73     -152936.22    
     49000   57.83052       30731.993      6724.9433      48.731617      2.3577398     -153074.06     -152937.19    
     49100   58.759607      165.37263      6724.9433      48.731617      2.3577398     -153074.47     -152935.4     
     49200   62.042975      24201.856      6724.9433      48.731617      2.3577398     -153079.44     -152932.6     
     49300   59.239875     -5599.9827      6724.9433      48.731617      2.3577398     -153073.45     -152933.25    
     49400   58.353626      22494.438      6724.9433      48.731617      2.3577398     -153075.97     -152937.86    
     49500   58.737475      24257.528      6724.9433      48.731617      2.3577398     -153083.92     -152944.91    
     49600   58.932492      18757.447      6724.9433      48.731617      2.3577398     -153083.72     -152944.24    
     49700   59.200592      21585.908      6724.9433      48.731617      2.3577398     -153075.62     -152935.51    
     49800   62.680905      14572.214      6724.9433      48.731617      2.3577398     -153078.37     -152930.02    
     49900   60.660075      19673.273      6724.9433      48.731617      2.3577398     -153075.84     -152932.27    
     50000   57.878805      18671.111      6724.9433      48.731617      2.3577398     -153072.97     -152935.99    
     50100   58.591399      9533.4364      6724.9433      48.731617      2.3577398     -153076.62     -152937.95    
     50200   57.314771      17244.535      6724.9433      48.731617      2.3577398     -153076.9      -152941.25    
     50300   58.740029      19813.567      6724.9433      48.731617      2.3577398     -153077.57     -152938.55    
     50400   59.951227      28195.486      6724.9433      48.731617      2.3577398     -153072.45     -152930.56    
     50500   58.822031      7443.2311      6724.9433      48.731617      2.3577398     -153067.8      -152928.59    
     50600   59.472582      23229.621      6724.9433      48.731617      2.3577398     -153075.4      -152934.64    
     50700   57.748022      19339.227      6724.9433      48.731617      2.3577398     -153080.05     -152943.37    
     50800   58.711657      36583.62       6724.9433      48.731617      2.3577398     -153081.35     -152942.4     
     50900   60.452514      7628.1963      6724.9433      48.731617      2.3577398     -153083.1      -152940.02    
     51000   61.173843      27247.55       6724.9433      48.731617      2.3577398     -153080.12     -152935.34    
     51100   62.348828      8275.5756      6724.9433      48.731617      2.3577398     -153077.95     -152930.38    
     51200   63.577907      16001.367      6724.9433      48.731617      2.3577398     -153078.16     -152927.69    
     51300   61.785909      25575.909      6724.9433      48.731617      2.3577398     -153073.52     -152927.29    
     51400   61.037036      31541.437      6724.9433      48.731617      2.3577398     -153077.96     -152933.5     
     51500   59.489814      20872.718      6724.9433      48.731617      2.3577398     -153080.91     -152940.11    
     51600   61.944592      39372.586      6724.9433      48.731617      2.3577398     -153087.41     -152940.8     
     51700   62.295028      27791.262      6724.9433      48.731617      2.3577398     -153084.39     -152936.95    
     51800   61.045702      27098.699      6724.9433      48.731617      2.3577398     -153072.09     -152927.61    
     51900   63.213932      42214.295      6724.9433      48.731617      2.3577398     -153074.15     -152924.54    
     52000   61.454866      17905.397      6724.9433      48.731617      2.3577398     -153075.74     -152930.29    
     52100   61.143488      24898.949      6724.9433      48.731617      2.3577398     -153078.92     -152934.21    
     52200   59.69368       14504.486      6724.9433      48.731617      2.3577398     -153075.68     -152934.4     
     52300   57.398466      26114.931      6724.9433      48.731617      2.3577398     -153072.31     -152936.47    
     52400   58.078378      1271.1997      6724.9433      48.731617      2.3577398     -153072.15     -152934.69    
     52500   61.436516      37795.079      6724.9433      48.731617      2.3577398     -153074.46     -152929.06    
     52600   61.986151      5471.9068      6724.9433      48.731617      2.3577398     -153074.2      -152927.49    
     52700   59.827599      18995.113      6724.9433      48.731617      2.3577398     -153077.91     -152936.31    
     52800   57.899906      7899.4443      6724.9433      48.731617      2.3577398     -153078.59     -152941.55    
     52900   59.951378      18986.32       6724.9433      48.731617      2.3577398     -153082.11     -152940.22    
     53000   59.050675      22780.556      6724.9433      48.731617      2.3577398     -153073.66     -152933.9     
     53100   61.081534      9214.1348      6724.9433      48.731617      2.3577398     -153075.38     -152930.81    
     53200   59.98063       19845.388      6724.9433      48.731617      2.3577398     -153073.82     -152931.86    
     53300   60.813124      26430.336      6724.9433      48.731617      2.3577398     -153077.91     -152933.98    
     53400   60.276471      11252.282      6724.9433      48.731617      2.3577398     -153081.28     -152938.62    
     53500   56.663755      132.96208      6724.9433      48.731617      2.3577398     -153080.78     -152946.67    
     53600   58.264066      12604.835      6724.9433      48.731617      2.3577398     -153082.37     -152944.48    
     53700   61.928788      16343.409      6724.9433      48.731617      2.3577398     -153079.4      -152932.83    
     53800   62.655145      15373.396      6724.9433      48.731617      2.3577398     -153078.29     -152930       
     53900   60.658565      21047.603      6724.9433      48.731617      2.3577398     -153076.17     -152932.6     
     54000   58.34216       11291.121      6724.9433      48.731617      2.3577398     -153077.33     -152939.25    
     54100   59.216577      27962.631      6724.9433      48.731617      2.3577398     -153083.08     -152942.93    
     54200   57.798136      11770.723      6724.9433      48.731617      2.3577398     -153074.03     -152937.24    
     54300   59.598284      14610.332      6724.9433      48.731617      2.3577398     -153068.11     -152927.05    
     54400   61.849301      9917.8807      6724.9433      48.731617      2.3577398     -153073.94     -152927.56    
     54500   59.01937       21136.091      6724.9433      48.731617      2.3577398     -153075.55     -152935.87    
     54600   60.624625     -418.30081      6724.9433      48.731617      2.3577398     -153081.75     -152938.27    
     54700   61.82688       18840.63       6724.9433      48.731617      2.3577398     -153083.85     -152937.52    
     54800   62.109024      16449.606      6724.9433      48.731617      2.3577398     -153080.28     -152933.28    
     54900   62.938271     -3846.8068      6724.9433      48.731617      2.3577398     -153072.25     -152923.29    
     55000   62.952222      12680.242      6724.9433      48.731617      2.3577398     -153072.35     -152923.36    
     55100   61.003937      11871.232      6724.9433      48.731617      2.3577398     -153076.82     -152932.44    
     55200   59.172695      29179.846      6724.9433      48.731617      2.3577398     -153076.61     -152936.56    
     55300   59.350574      19448.056      6724.9433      48.731617      2.3577398     -153077.21     -152936.74    
     55400   61.602603      14875.993      6724.9433      48.731617      2.3577398     -153079.97     -152934.18    
     55500   63.054865      29274.983      6724.9433      48.731617      2.3577398     -153079.36     -152930.12    
     55600   63.881803      4833.3368      6724.9433      48.731617      2.3577398     -153076.07     -152924.87    
     55700   61.811955      20224.631      6724.9433      48.731617      2.3577398     -153073.9      -152927.61    
     55800   59.766532     -6820.8903      6724.9433      48.731617      2.3577398     -153078.28     -152936.83    
     55900   57.62596       30185.947      6724.9433      48.731617      2.3577398     -153075.37     -152938.99    
     56000   61.095164      10698.694      6724.9433      48.731617      2.3577398     -153081.53     -152936.93    
     56100   58.030002      21275.89       6724.9433      48.731617      2.3577398     -153074.6      -152937.26    
     56200   56.939913      18907.951      6724.9433      48.731617      2.3577398     -153074.18     -152939.41    
     56300   58.053592      24114.366      6724.9433      48.731617      2.3577398     -153074.83     -152937.43    
     56400   62.235872      29900.923      6724.9433      48.731617      2.3577398     -153078.21     -152930.91    
     56500   61.886545      21931.211      6724.9433      48.731617      2.3577398     -153074.15     -152927.68    
     56600   60.334923      10046.554      6724.9433      48.731617      2.3577398     -153074.84     -152932.04    
     56700   60.159938      5678.195       6724.9433      48.731617      2.3577398     -153083.88     -152941.5     
     56800   61.435479      26391.962      6724.9433      48.731617      2.3577398     -153088.45     -152943.05    
     56900   58.17149       14653.13       6724.9433      48.731617      2.3577398     -153078.55     -152940.87    
     57000   59.946231      17816.467      6724.9433      48.731617      2.3577398     -153078.35     -152936.47    
     57100   57.489379     -3416.4606      6724.9433      48.731617      2.3577398     -153070.69     -152934.62    
     57200   58.509624      23614.517      6724.9433      48.731617      2.3577398     -153071.68     -152933.21    
     57300   60.666012      26373.22       6724.9433      48.731617      2.3577398     -153075.82     -152932.24    
     57400   59.779628      22133.021      6724.9433      48.731617      2.3577398     -153074.14     -152932.66    
     57500   60.415572      24298.168      6724.9433      48.731617      2.3577398     -153079.53     -152936.54    
     57600   60.735679      35541.192      6724.9433      48.731617      2.3577398     -153084.88     -152941.13    
     57700   59.900078      25472.987      6724.9433      48.731617      2.3577398     -153082.17     -152940.4     
     57800   61.547343      1252.7366      6724.9433      48.731617      2.3577398     -153079.05     -152933.38    
     57900   61.24285       42661.092      6724.9433      48.731617      2.3577398     -153071.95     -152927.01    
     58000   63.314906     -10258.033      6724.9433      48.731617      2.3577398     -153077.37     -152927.52    
     58100   59.160824      29596.304      6724.9433      48.731617      2.3577398     -153078.75     -152938.73    
     58200   58.983666      14213.52       6724.9433      48.731617      2.3577398     -153081.9      -152942.3     
     58300   59.135244      25906.071      6724.9433      48.731617      2.3577398     -153078.66     -152938.71    
     58400   61.989903     -3438.0665      6724.9433      48.731617      2.3577398     -153077.36     -152930.64    
     58500   60.47647       53269.595      6724.9433      48.731617      2.3577398     -153073.22     -152930.09    
     58600   60.38435       2332.721       6724.9433      48.731617      2.3577398     -153074.48     -152931.57    
     58700   60.412487      28830.911      6724.9433      48.731617      2.3577398     -153076.65     -152933.67    
     58800   60.102196      8339.9439      6724.9433      48.731617      2.3577398     -153078.37     -152936.12    
     58900   61.828914      27276.71       6724.9433      48.731617      2.3577398     -153082.47     -152936.14    
     59000   59.582905      16507.89       6724.9433      48.731617      2.3577398     -153076.87     -152935.85    
     59100   62.17518       14570.002      6724.9433      48.731617      2.3577398     -153085.15     -152938       
     59200   58.867736      38381.651      6724.9433      48.731617      2.3577398     -153079.85     -152940.53    
     59300   58.634304      3720.2526      6724.9433      48.731617      2.3577398     -153076.77     -152938       
     59400   58.78614       50333.346      6724.9433      48.731617      2.3577398     -153068.3      -152929.16    
     59500   62.515717      8852.546       6724.9433      48.731617      2.3577398     -153074.11     -152926.15    
     59600   59.28005       31220.853      6724.9433      48.731617      2.3577398     -153069.75     -152929.45    
     59700   58.10665       7238.2863      6724.9433      48.731617      2.3577398     -153074.54     -152937.02    
     59800   58.073405      19914.173      6724.9433      48.731617      2.3577398     -153082.36     -152944.92    
     59900   59.07747       6596.494       6724.9433      48.731617      2.3577398     -153084.19     -152944.37    
     60000   58.357808      24839.269      6724.9433      48.731617      2.3577398     -153078.22     -152940.1     
     60100   59.766509      1775.6913      6724.9433      48.731617      2.3577398     -153075.66     -152934.21    
     60200   59.244336      5564.2882      6724.9433      48.731617      2.3577398     -153069.62     -152929.4     
     60300   60.487198      21126.559      6724.9433      48.731617      2.3577398     -153067.78     -152924.62    
     60400   62.125667     -4511.6933      6724.9433      48.731617      2.3577398     -153066.75     -152919.71    
     60500   63.159666      31301.874      6724.9433      48.731617      2.3577398     -153072.76     -152923.28    
     60600   60.535537      6879.8248      6724.9433      48.731617      2.3577398     -153078.13     -152934.86    
     60700   60.503482      24571.585      6724.9433      48.731617      2.3577398     -153083.86     -152940.66    
     60800   60.388686      15336.703      6724.9433      48.731617      2.3577398     -153086        -152943.08    
     60900   58.203854      26057.993      6724.9433      48.731617      2.3577398     -153077.22     -152939.47    
     61000   62.585296      26775.65       6724.9433      48.731617      2.3577398     -153078        -152929.87    
     61100   62.658906      11644.972      6724.9433      48.731617      2.3577398     -153077.26     -152928.96    
     61200   61.700812      24484.181      6724.9433      48.731617      2.3577398     -153079.92     -152933.88    
     61300   59.879693      6024.1647      6724.9433      48.731617      2.3577398     -153078.91     -152937.19    
     61400   57.141524      40658.307      6724.9433      48.731617      2.3577398     -153075.76     -152940.51    
     61500   57.680166      873.90636      6724.9433      48.731617      2.3577398     -153083.49     -152946.97    
     61600   58.511848      44871.891      6724.9433      48.731617      2.3577398     -153080.61     -152942.13    
     61700   60.213177     -4009.1315      6724.9433      48.731617      2.3577398     -153076.19     -152933.67    
     61800   63.735617      62939.29       6724.9433      48.731617      2.3577398     -153082.53     -152931.69    
     61900   60.961012      8876.1774      6724.9433      48.731617      2.3577398     -153079.96     -152935.68    
     62000   56.738629      40736.75       6724.9433      48.731617      2.3577398     -153078.27     -152943.99    
     62100   57.960583      23454.289      6724.9433      48.731617      2.3577398     -153086.17     -152948.99    
     62200   58.624036      34700.359      6724.9433      48.731617      2.3577398     -153077.94     -152939.19    
     62300   60.53631       10842.672      6724.9433      48.731617      2.3577398     -153074.49     -152931.21    
     62400   58.203982      41582.42       6724.9433      48.731617      2.3577398     -153068.56     -152930.81    
     62500   60.765152     -12656.176      6724.9433      48.731617      2.3577398     -153075.01     -152931.19    
     62600   59.171657      25322.724      6724.9433      48.731617      2.3577398     -153074.2      -152934.15    
     62700   57.027319      17670.83       6724.9433      48.731617      2.3577398     -153074.91     -152939.94    
     62800   56.336056      25517.238      6724.9433      48.731617      2.3577398     -153077.93     -152944.59    
     62900   59.798222      22029.743      6724.9433      48.731617      2.3577398     -153082.02     -152940.5     
     63000   62.19564       35339.367      6724.9433      48.731617      2.3577398     -153077.31     -152930.11    
     63100   60.791251      24708.816      6724.9433      48.731617      2.3577398     -153075.64     -152931.76    
     63200   60.874437      25324.147      6724.9433      48.731617      2.3577398     -153079.77     -152935.7     
     63300   60.594961      6923.3667      6724.9433      48.731617      2.3577398     -153078.51     -152935.09    
     63400   61.157886      24311.457      6724.9433      48.731617      2.3577398     -153070.72     -152925.97    
     63500   61.71912       5176.9292      6724.9433      48.731617      2.3577398     -153067.79     -152921.72    
     63600   59.087672     -10358.213      6724.9433      48.731617      2.3577398     -153070.13     -152930.28    
     63700   59.665293      12826.256      6724.9433      48.731617      2.3577398     -153076.16     -152934.95    
     63800   60.054803      17416.679      6724.9433      48.731617      2.3577398     -153078.48     -152936.35    
     63900   59.623882      25251.494      6724.9433      48.731617      2.3577398     -153080.34     -152939.23    
     64000   59.684138      14429.227      6724.9433      48.731617      2.3577398     -153086.89     -152945.63    
     64100   55.116257      1813.6086      6724.9433      48.731617      2.3577398     -153079.61     -152949.16    
     64200   59.663025      19322.695      6724.9433      48.731617      2.3577398     -153078.91     -152937.71    
     64300   63.929583      5740.7776      6724.9433      48.731617      2.3577398     -153083.38     -152932.07    
     64400   61.738025      11355.12       6724.9433      48.731617      2.3577398     -153078.31     -152932.19    
     64500   60.731605      13346.778      6724.9433      48.731617      2.3577398     -153079.47     -152935.73    
[...]
    384200   61.504959      32001.928      6724.9433      48.731617      2.3577398     -153076.36     -152930.79    
    384300   62.478708      17477.523      6724.9433      48.731617      2.3577398     -153082.23     -152934.36    
    384400   63.899094      12454.118      6724.9433      48.731617      2.3577398     -153088.55     -152937.32    
    384500   60.862768      17840.1        6724.9433      48.731617      2.3577398     -153082.16     -152938.12    
    384600   62.116743      18202.368      6724.9433      48.731617      2.3577398     -153075.49     -152928.47    
    384700   61.813239      25889.327      6724.9433      48.731617      2.3577398     -153069.12     -152922.82    
    384800   61.925792      9343.6775      6724.9433      48.731617      2.3577398     -153076.16     -152929.59    
    384900   60.065309      33336.679      6724.9433      48.731617      2.3577398     -153078.32     -152936.16    
    385000   60.837623     -10672.249      6724.9433      48.731617      2.3577398     -153081.89     -152937.91    
    385100   60.930043      25470.255      6724.9433      48.731617      2.3577398     -153081.23     -152937.02    
    385200   62.807944      27982.079      6724.9433      48.731617      2.3577398     -153078.96     -152930.31    
    385300   63.546038     -3457.4458      6724.9433      48.731617      2.3577398     -153071.59     -152921.19    
    385400   61.820075      23413.904      6724.9433      48.731617      2.3577398     -153072.06     -152925.74    
    385500   61.590094      9533.9809      6724.9433      48.731617      2.3577398     -153077.58     -152931.81    
    385600   61.045994      21664.114      6724.9433      48.731617      2.3577398     -153079        -152934.52    
    385700   60.386018      5223.3577      6724.9433      48.731617      2.3577398     -153080.5      -152937.58    
    385800   59.801946      39465.538      6724.9433      48.731617      2.3577398     -153081.91     -152940.37    
    385900   61.316048      1007.3337      6724.9433      48.731617      2.3577398     -153084.41     -152939.29    
    386000   60.119423      49251.747      6724.9433      48.731617      2.3577398     -153075.49     -152933.2     
    386100   63.445308      11560.447      6724.9433      48.731617      2.3577398     -153076.5      -152926.34    
    386200   61.864145      37349.476      6724.9433      48.731617      2.3577398     -153075.4      -152928.98    
    386300   60.743472      15846.236      6724.9433      48.731617      2.3577398     -153081.91     -152938.14    
    386400   57.542976      30586.664      6724.9433      48.731617      2.3577398     -153077.18     -152940.99    
    386500   58.529169     -1641.0061      6724.9433      48.731617      2.3577398     -153075.61     -152937.08    
    386600   61.500693      29316.145      6724.9433      48.731617      2.3577398     -153076.91     -152931.35    
    386700   61.993008      6621.1066      6724.9433      48.731617      2.3577398     -153078.49     -152931.77    
    386800   61.620895      12123.06       6724.9433      48.731617      2.3577398     -153082.29     -152936.45    
    386900   59.464653      21829.462      6724.9433      48.731617      2.3577398     -153087.52     -152946.78    
    387000   57.523107      5934.8435      6724.9433      48.731617      2.3577398     -153080.32     -152944.18    
    387100   58.402827      23742.565      6724.9433      48.731617      2.3577398     -153075.41     -152937.19    
    387200   61.347676      30694.714      6724.9433      48.731617      2.3577398     -153078.45     -152933.25    
    387300   60.765549      31962.124      6724.9433      48.731617      2.3577398     -153077.51     -152933.7     
    387400   59.665368      10852.003      6724.9433      48.731617      2.3577398     -153075.62     -152934.41    
    387500   58.512324      35910.237      6724.9433      48.731617      2.3577398     -153079.88     -152941.4     
    387600   57.427285     -17751.985      6724.9433      48.731617      2.3577398     -153082.34     -152946.42    
    387700   57.50603       29592.558      6724.9433      48.731617      2.3577398     -153076.46     -152940.36    
    387800   60.217891     -19.611462      6724.9433      48.731617      2.3577398     -153075.15     -152932.62    
    387900   61.436945      39054.555      6724.9433      48.731617      2.3577398     -153076.74     -152931.34    
    388000   60.277439      5028.22        6724.9433      48.731617      2.3577398     -153076.85     -152934.19    
    388100   57.829516      46808.285      6724.9433      48.731617      2.3577398     -153077.86     -152940.99    
    388200   59.381746     -6074.4654      6724.9433      48.731617      2.3577398     -153089.6      -152949.06    
    388300   57.704131      47400.855      6724.9433      48.731617      2.3577398     -153089.43     -152952.85    
    388400   57.856156     -9509.6013      6724.9433      48.731617      2.3577398     -153076.53     -152939.6     
    388500   61.500378      31191.355      6724.9433      48.731617      2.3577398     -153078.68     -152933.12    
    388600   61.382583      14765.629      6724.9433      48.731617      2.3577398     -153075.36     -152930.08    
    388700   60.56176       7071.854       6724.9433      48.731617      2.3577398     -153074.43     -152931.1     
    388800   59.517281      9955.807       6724.9433      48.731617      2.3577398     -153080.65     -152939.79    
    388900   60.465428      19265.726      6724.9433      48.731617      2.3577398     -153084.79     -152941.68    
    389000   60.439656      18343.8        6724.9433      48.731617      2.3577398     -153080.15     -152937.11    
    389100   59.786993      7424.2896      6724.9433      48.731617      2.3577398     -153075.93     -152934.42    
    389200   63.564862      34006.041      6724.9433      48.731617      2.3577398     -153075.48     -152925.04    
    389300   65.688985      24589.238      6724.9433      48.731617      2.3577398     -153072.91     -152917.44    
    389400   65.292614      33012.818      6724.9433      48.731617      2.3577398     -153080.41     -152925.88    
    389500   61.933878      3287.3945      6724.9433      48.731617      2.3577398     -153081.47     -152934.89    
    389600   57.819019      12241.79       6724.9433      48.731617      2.3577398     -153075.92     -152939.08    
    389700   57.616119      19932.703      6724.9433      48.731617      2.3577398     -153074.32     -152937.95    
    389800   60.774083     -17284.947      6724.9433      48.731617      2.3577398     -153076.32     -152932.48    
    389900   60.167373      42897.08       6724.9433      48.731617      2.3577398     -153071.23     -152928.82    
    390000   62.878733     -19826.237      6724.9433      48.731617      2.3577398     -153072.34     -152923.52    
    390100   60.114981      30997.925      6724.9433      48.731617      2.3577398     -153068.89     -152926.61    
    390200   59.275743      427.64259      6724.9433      48.731617      2.3577398     -153077.05     -152936.76    
    390300   58.690298      37424.714      6724.9433      48.731617      2.3577398     -153077.77     -152938.87    
    390400   61.682109      4843.6658      6724.9433      48.731617      2.3577398     -153082.72     -152936.73    
    390500   61.03264       39167.186      6724.9433      48.731617      2.3577398     -153076.75     -152932.3     
    390600   61.972954      4247.4072      6724.9433      48.731617      2.3577398     -153070.03     -152923.35    
    390700   62.78621       30848.745      6724.9433      48.731617      2.3577398     -153072.63     -152924.03    
    390800   61.937319      23520.225      6724.9433      48.731617      2.3577398     -153080.81     -152934.22    
    390900   60.629539      21233.879      6724.9433      48.731617      2.3577398     -153080.6      -152937.11    
    391000   60.611183      19506.992      6724.9433      48.731617      2.3577398     -153079.8      -152936.34    
    391100   61.931375      33207.584      6724.9433      48.731617      2.3577398     -153077.91     -152931.34    
    391200   61.219534      11430.607      6724.9433      48.731617      2.3577398     -153073.03     -152928.14    
    391300   59.55154       1587.499       6724.9433      48.731617      2.3577398     -153074.04     -152933.09    
    391400   58.30021       21634.089      6724.9433      48.731617      2.3577398     -153079.48     -152941.5     
    391500   57.951266      34930.796      6724.9433      48.731617      2.3577398     -153080.79     -152943.63    
    391600   59.829788     -1545.1226      6724.9433      48.731617      2.3577398     -153078.78     -152937.18    
    391700   64.826501      24253.255      6724.9433      48.731617      2.3577398     -153081.78     -152928.35    
    391800   61.035114      24374.494      6724.9433      48.731617      2.3577398     -153073.18     -152928.72    
    391900   62.677469      6987.9337      6724.9433      48.731617      2.3577398     -153077.82     -152929.48    
    392000   63.214718      40756.683      6724.9433      48.731617      2.3577398     -153084.83     -152935.21    
    392100   61.194532      7074.5465      6724.9433      48.731617      2.3577398     -153087.13     -152942.3     
    392200   61.564824      30254.35       6724.9433      48.731617      2.3577398     -153087.39     -152941.68    
    392300   61.120717     -1075.5008      6724.9433      48.731617      2.3577398     -153084.11     -152939.45    
    392400   59.971385      28212.827      6724.9433      48.731617      2.3577398     -153077.92     -152935.98    
    392500   59.440428      14761.889      6724.9433      48.731617      2.3577398     -153075.78     -152935.09    
    392600   61.599854      12590.551      6724.9433      48.731617      2.3577398     -153080.49     -152934.7     
    392700   60.729414      20905.396      6724.9433      48.731617      2.3577398     -153081.26     -152937.53    
    392800   57.741851      4835.255       6724.9433      48.731617      2.3577398     -153084.67     -152948.01    
    392900   56.620792      19321.037      6724.9433      48.731617      2.3577398     -153081.64     -152947.63    
    393000   58.952986      11180.847      6724.9433      48.731617      2.3577398     -153077.25     -152937.72    
    393100   60.526118      27776.601      6724.9433      48.731617      2.3577398     -153076.55     -152933.3     
    393200   59.832287     -9081.9729      6724.9433      48.731617      2.3577398     -153073.18     -152931.57    
    393300   63.388571      29577.917      6724.9433      48.731617      2.3577398     -153082.03     -152932       
    393400   60.666476     -4444.5566      6724.9433      48.731617      2.3577398     -153082.84     -152939.26    
    393500   59.353243      29967.625      6724.9433      48.731617      2.3577398     -153085.24     -152944.76    
    393600   57.788613      1492.9126      6724.9433      48.731617      2.3577398     -153079.6      -152942.83    
    393700   61.182351      14986.84       6724.9433      48.731617      2.3577398     -153075.61     -152930.8     
    393800   64.118009     -5194.296       6724.9433      48.731617      2.3577398     -153080.65     -152928.89    
    393900   59.299854      28966.644      6724.9433      48.731617      2.3577398     -153076.42     -152936.07    
    394000   59.425831      16959.701      6724.9433      48.731617      2.3577398     -153080.2      -152939.55    
    394100   59.480172      26213.23       6724.9433      48.731617      2.3577398     -153078.71     -152937.93    
    394200   64.030862      20290.632      6724.9433      48.731617      2.3577398     -153078.22     -152926.68    
    394300   60.092601      9376.7369      6724.9433      48.731617      2.3577398     -153065.75     -152923.53    
    394400   63.085249      11789.246      6724.9433      48.731617      2.3577398     -153077.25     -152927.95    
    394500   58.995479      29588.966      6724.9433      48.731617      2.3577398     -153075.1      -152935.47    
    394600   59.532333      23159.302      6724.9433      48.731617      2.3577398     -153078.97     -152938.07    
    394700   62.18017       17109.472      6724.9433      48.731617      2.3577398     -153082.14     -152934.98    
    394800   61.947807      8181.4342      6724.9433      48.731617      2.3577398     -153077.69     -152931.07    
    394900   64.753439      15066.294      6724.9433      48.731617      2.3577398     -153077.22     -152923.96    
    395000   60.71632       32545.812      6724.9433      48.731617      2.3577398     -153068.47     -152924.77    
    395100   60.440572      545.7972       6724.9433      48.731617      2.3577398     -153079.03     -152935.98    
    395200   60.521135      32461.436      6724.9433      48.731617      2.3577398     -153083.42     -152940.18    
    395300   59.063592     -785.09178      6724.9433      48.731617      2.3577398     -153079.4      -152939.61    
    395400   61.310064      15222.073      6724.9433      48.731617      2.3577398     -153078.07     -152932.97    
    395500   64.48017       1443.7669      6724.9433      48.731617      2.3577398     -153078.27     -152925.66    
    395600   59.518544      9354.0016      6724.9433      48.731617      2.3577398     -153070.46     -152929.59    
    395700   57.654568      15182.165      6724.9433      48.731617      2.3577398     -153078.09     -152941.63    
    395800   60.929318      10841.286      6724.9433      48.731617      2.3577398     -153084.33     -152940.13    
    395900   59.836364      36442.485      6724.9433      48.731617      2.3577398     -153076.29     -152934.67    
    396000   60.399538      14765.001      6724.9433      48.731617      2.3577398     -153072.95     -152930       
    396100   61.166166      39134.834      6724.9433      48.731617      2.3577398     -153074.07     -152929.3     
    396200   59.971656      14226.817      6724.9433      48.731617      2.3577398     -153079.95     -152938.01    
    396300   57.295561      22730.258      6724.9433      48.731617      2.3577398     -153079.96     -152944.36    
    396400   59.461472      12499.791      6724.9433      48.731617      2.3577398     -153080.86     -152940.13    
    396500   58.816082      21278.625      6724.9433      48.731617      2.3577398     -153072.49     -152933.29    
    396600   60.405737      2659.2023      6724.9433      48.731617      2.3577398     -153073.21     -152930.24    
    396700   59.965622      31037.884      6724.9433      48.731617      2.3577398     -153074.48     -152932.56    
    396800   61.427983      15845.014      6724.9433      48.731617      2.3577398     -153077.7      -152932.32    
    396900   60.582553      18402.644      6724.9433      48.731617      2.3577398     -153076.87     -152933.49    
    397000   59.944774      6437.4297      6724.9433      48.731617      2.3577398     -153078.59     -152936.71    
    397100   59.781723      41021.434      6724.9433      48.731617      2.3577398     -153085.04     -152943.55    
    397200   57.091698     -9068.1582      6724.9433      48.731617      2.3577398     -153085.65     -152950.52    
    397300   56.808587      16153.953      6724.9433      48.731617      2.3577398     -153078.59     -152944.14    
    397400   60.449828      8135.3055      6724.9433      48.731617      2.3577398     -153079.22     -152936.15    
    397500   58.81522       8668.5706      6724.9433      48.731617      2.3577398     -153074.13     -152934.92    
    397600   57.053838      4557.4333      6724.9433      48.731617      2.3577398     -153071.18     -152936.15    
    397700   61.121822      32839.273      6724.9433      48.731617      2.3577398     -153079.97     -152935.31    
    397800   60.870297      4527.3786      6724.9433      48.731617      2.3577398     -153075.03     -152930.96    
    397900   62.294543      9341.0003      6724.9433      48.731617      2.3577398     -153073.09     -152925.65    
    398000   58.118471      16313.126      6724.9433      48.731617      2.3577398     -153069.58     -152932.03    
    398100   61.125832      9336.413       6724.9433      48.731617      2.3577398     -153082.95     -152938.28    
    398200   60.737254      11211.263      6724.9433      48.731617      2.3577398     -153082.27     -152938.52    
    398300   60.302697      21468.888      6724.9433      48.731617      2.3577398     -153078.88     -152936.15    
    398400   61.72566       41588.437      6724.9433      48.731617      2.3577398     -153076.6      -152930.51    
    398500   61.221038      14835.033      6724.9433      48.731617      2.3577398     -153066.98     -152922.08    
    398600   60.242862      18933.056      6724.9433      48.731617      2.3577398     -153069.7      -152927.12    
    398700   60.779575      16106.293      6724.9433      48.731617      2.3577398     -153079.49     -152935.64    
    398800   58.739477      12262.161      6724.9433      48.731617      2.3577398     -153076.47     -152937.45    
    398900   62.285507      17307.089      6724.9433      48.731617      2.3577398     -153082.27     -152934.86    
    399000   59.461013      18464.412      6724.9433      48.731617      2.3577398     -153074.91     -152934.18    
    399100   62.524717      13651.972      6724.9433      48.731617      2.3577398     -153081.18     -152933.2     
    399200   61.32024       28819.825      6724.9433      48.731617      2.3577398     -153082.71     -152937.58    
    399300   60.329264      27958.157      6724.9433      48.731617      2.3577398     -153083.9      -152941.11    
    399400   59.657427      13679.926      6724.9433      48.731617      2.3577398     -153080.98     -152939.78    
    399500   61.334948      22326.97       6724.9433      48.731617      2.3577398     -153076.35     -152931.18    
    399600   61.696919      15088.637      6724.9433      48.731617      2.3577398     -153072.64     -152926.62    
    399700   64.081116      23889.021      6724.9433      48.731617      2.3577398     -153079.75     -152928.09    
    399800   59.736871      17708.792      6724.9433      48.731617      2.3577398     -153081.81     -152940.43    
    399900   60.422654      1546.4382      6724.9433      48.731617      2.3577398     -153085.05     -152942.05    
    400000   59.126644      26979.694      6724.9433      48.731617      2.3577398     -153079.05     -152939.11    
    400011   60.561258      23822.703      6724.9433      48.731617      2.3577398     -153081.64     -152938.31    
Loop time of 14839.8 on 64 procs for 400000 steps with 795 atoms

Performance: 0.582 ns/day, 41.222 hours/ns, 26.955 timesteps/s
99.6% CPU use with 64 MPI tasks x 1 OpenMP threads

MPI task timing breakdown:
Section |  min time  |  avg time  |  max time  |%varavg| %total
---------------------------------------------------------------
Pair    | 8432.1     | 11079      | 13504      |1402.8 | 74.66
Neigh   | 15.432     | 19.797     | 24.608     |  57.4 |  0.13
Comm    | 178.9      | 2502.3     | 5038.7     |2807.4 | 16.86
Output  | 0.50818    | 4.8061     | 7.4106     | 131.6 |  0.03
Modify  | 1117.6     | 1230.5     | 1824.8     | 372.2 |  8.29
Other   |            | 3.16       |            |       |  0.02

Nlocal:        12.4219 ave          16 max           7 min
Histogram: 1 1 2 10 4 14 12 7 12 1
Nghost:         2183.2 ave        2479 max        1932 min
Histogram: 9 8 1 3 18 9 1 2 10 3
Neighs:        6813.59 ave        9081 max        3407 min
Histogram: 3 2 7 2 11 3 10 10 6 10

Total # of neighbors = 436070
Ave neighs/atom = 548.51572
Neighbor list builds = 1856
Dangerous builds = 0

write_data graphene_single_layer_ReaxFF_750_C_temp_60K.data ### MODIFY FILE NAME ###
System init for write_data ...
Total wall time: 4:07:22
