
# System definition
read_data graphene_single_layer_x-45_y-45_795_C.data ### MODIFY FILE NAME ###
Reading data file ...
  orthogonal box = (-1.4464652 -1.4423034 -1.42) to (47.285152 47.149102 1.42)
  8 by 8 by 1 MPI processor grid
  reading atoms ...
  795 atoms
  reading velocities ...
  795 velocities
  read_data CPU = 0.025 seconds

pair_style reax/c NULL
pair_coeff * * ffield.reax.cho C
Reading potential file ffield.reax.cho with DATE: 2011-02-18
fix qeq_reax all qeq/reax 1 0.0 10.0 1.0e-6 reax/c


# Minimization
timestep 0.25
min_style cg
thermo 100
thermo_style custom step temp press vol lx density pe etotal
dump 2 all custom 1000 graphene_single_layer_ReaxFF_795_C_temp_100K.lammpstrj id type x y z ### MODIFY FILE NAME ###
minimize 1.0e-6 1.0e-6 100 1000

CITE-CITE-CITE-CITE-CITE-CITE-CITE-CITE-CITE-CITE-CITE-CITE-CITE

Your simulation uses code contributions which should be cited:

- pair reaxff command:

@Article{Aktulga12,
 author = {H. M. Aktulga, J. C. Fogarty, S. A. Pandit, A. Y. Grama},
 title = {Parallel reactive molecular dynamics: Numerical methods and algorithmic techniques},
 journal = {Parallel Computing},
 year =    2012,
 volume =  38,
 pages =   {245--259}
}

- fix qeq/reaxff command:

@Article{Aktulga12,
 author = {H. M. Aktulga, J. C. Fogarty, S. A. Pandit, A. Y. Grama},
 title = {Parallel reactive molecular dynamics: Numerical methods and algorithmic techniques},
 journal = {Parallel Computing},
 year =    2012,
 volume =  38,
 pages =   {245--259}
}

CITE-CITE-CITE-CITE-CITE-CITE-CITE-CITE-CITE-CITE-CITE-CITE-CITE

WARNING: Using 'neigh_modify every 1 delay 0 check yes' setting during minimization (src/min.cpp:187)
Neighbor list info ...
  update every 1 steps, delay 0 steps, check yes
  max neighbors/atom: 10000, page size: 100000
  master list distance cutoff = 10.4
  ghost atom cutoff = 10.4
  binsize = 5.2, bins = 10 10 1
  2 neighbor lists, perpetual/occasional/extra = 2 0 0
  (1) pair reax/c, perpetual
      attributes: half, newton off, ghost
      pair build: half/bin/newtoff/ghost
      stencil: full/ghost/bin/3d
      bin: standard
  (2) fix qeq/reax, perpetual, copy from (1)
      attributes: half, newton off
      pair build: copy
      stencil: none
      bin: none
Per MPI rank memory allocation (min/avg/max) = 36.37 | 41.41 | 47.38 Mbytes
   Step          Temp          Press          Volume           Lx          Density         PotEng         TotEng    
         0   923            34054.396      6724.9433      48.731617      2.3577398     -151766.67     -149582.14    
        11   923            35396.792      6724.9433      48.731617      2.3577398     -151904.55     -149720.03    
Loop time of 2.3333 on 64 procs for 11 steps with 795 atoms

99.4% CPU use with 64 MPI tasks x 1 OpenMP threads

Minimization stats:
  Stopping criterion = energy tolerance
  Energy initial, next-to-last, final = 
     -151766.666472543  -151904.508881892  -151904.547898656
  Force two-norm initial, final = 279.94165 356.09863
  Force max component initial, final = 137.99181 55.448555
  Final line search alpha, max atom move = 0.00038853166 0.021543519
  Iterations, force evaluations = 11 32

MPI task timing breakdown:
Section |  min time  |  avg time  |  max time  |%varavg| %total
---------------------------------------------------------------
Pair    | 0.83423    | 1.1861     | 1.8668     |  20.6 | 50.83
Neigh   | 0.010525   | 0.018242   | 0.027078   |   2.9 |  0.78
Comm    | 0.12562    | 0.6106     | 1.0969     |  28.5 | 26.17
Output  | 0          | 0          | 0          |   0.0 |  0.00
Modify  | 0.30973    | 0.31858    | 0.32617    |   0.7 | 13.65
Other   |            | 0.1998     |            |       |  8.56

Nlocal:        12.4219 ave          15 max          10 min
Histogram: 15 0 0 0 22 0 12 0 0 15
Nghost:        2194.12 ave        2559 max        1869 min
Histogram: 2 8 9 4 12 12 5 4 6 2
Neighs:        6807.34 ave        8856 max        4476 min
Histogram: 4 8 3 7 7 13 5 2 0 15

Total # of neighbors = 435670
Ave neighs/atom = 548.01258
Neighbor list builds = 1
Dangerous builds = 0

fix 1 all nvt temp 100.0 100.0 $(100.0*dt)  ### MODIFY INIT TEMP, FINAL TEMP ###
fix 1 all nvt temp 100.0 100.0 25  
run 400000
Per MPI rank memory allocation (min/avg/max) = 35.25 | 40.29 | 46.26 Mbytes
   Step          Temp          Press          Volume           Lx          Density         PotEng         TotEng    
        11   923            35396.792      6724.9433      48.731617      2.3577398     -151904.55     -149720.03    
       100   419.0136       48259.146      6724.9433      48.731617      2.3577398     -151366.45     -150374.74    
       200   227.18489      138735.06      6724.9433      48.731617      2.3577398     -151577.54     -151039.85    
       300   215.76828     -93983.456      6724.9433      48.731617      2.3577398     -152026.88     -151516.21    
       400   181.9796       127447.9       6724.9433      48.731617      2.3577398     -152312.19     -151881.49    
       500   174.40019     -67409.185      6724.9433      48.731617      2.3577398     -152597        -152184.23    
       600   135.61413      58359.288      6724.9433      48.731617      2.3577398     -152721.3      -152400.33    
       700   104.54437     -50240.381      6724.9433      48.731617      2.3577398     -152791.52     -152544.09    
       800   91.933554      83939.629      6724.9433      48.731617      2.3577398     -152843.89     -152626.31    
       900   89.175612     -30213.496      6724.9433      48.731617      2.3577398     -152874.21     -152663.15    
      1000   90.063312      72048.409      6724.9433      48.731617      2.3577398     -152868.05     -152654.89    
      1100   98.99484      -23043.237      6724.9433      48.731617      2.3577398     -152847.16     -152612.87    
      1200   115.0017       111799.21      6724.9433      48.731617      2.3577398     -152847.35     -152575.17    
      1300   104.37031     -36615.96       6724.9433      48.731617      2.3577398     -152816.45     -152569.43    
      1400   101.15383      59772.696      6724.9433      48.731617      2.3577398     -152836.28     -152596.87    
      1500   95.430412     -40399.919      6724.9433      48.731617      2.3577398     -152845.87     -152620.01    
      1600   101.49761      64290.436      6724.9433      48.731617      2.3577398     -152866.43     -152626.21    
      1700   109.25999     -22038.34       6724.9433      48.731617      2.3577398     -152912.73     -152654.14    
      1800   97.409543      61080.685      6724.9433      48.731617      2.3577398     -152937.3      -152706.76    
      1900   87.860472     -11512.418      6724.9433      48.731617      2.3577398     -152946.17     -152738.23    
      2000   95.513804      52445.74       6724.9433      48.731617      2.3577398     -152956.83     -152730.77    
      2100   100.17307     -32546.642      6724.9433      48.731617      2.3577398     -152934.71     -152697.62    
      2200   109.30711      75608.766      6724.9433      48.731617      2.3577398     -152927.56     -152668.86    
      2300   108.9316      -22931.809      6724.9433      48.731617      2.3577398     -152919.79     -152661.97    
      2400   101.25606      48687.256      6724.9433      48.731617      2.3577398     -152921.97     -152682.32    
      2500   94.232403     -32761.557      6724.9433      48.731617      2.3577398     -152927.36     -152704.33    
      2600   98.229915      62618.76       6724.9433      48.731617      2.3577398     -152935.26     -152702.77    
      2700   96.25162       2776.0729      6724.9433      48.731617      2.3577398     -152921.21     -152693.41    
      2800   100.96748      50303.48       6724.9433      48.731617      2.3577398     -152920.51     -152681.54    
      2900   105.79161      6920.4528      6724.9433      48.731617      2.3577398     -152931.5      -152681.11    
      3000   99.457978      46726.691      6724.9433      48.731617      2.3577398     -152931.79     -152696.39    
      3100   98.070345      4636.8977      6724.9433      48.731617      2.3577398     -152940.69     -152708.58    
      3200   95.844143      7084.0721      6724.9433      48.731617      2.3577398     -152937        -152710.16    
      3300   96.085957     -12256.103      6724.9433      48.731617      2.3577398     -152925.21     -152697.8     
      3400   101.2796       31176.816      6724.9433      48.731617      2.3577398     -152920.55     -152680.84    
      3500   105.13878     -4920.4975      6724.9433      48.731617      2.3577398     -152922.89     -152674.05    
      3600   96.11647       6162.2596      6724.9433      48.731617      2.3577398     -152913.58     -152686.1     
      3700   95.967909      35536.796      6724.9433      48.731617      2.3577398     -152929.12     -152701.99    
      3800   97.657867      14941.113      6724.9433      48.731617      2.3577398     -152940.78     -152709.65    
      3900   99.112741      14854.806      6724.9433      48.731617      2.3577398     -152939.07     -152704.5     
      4000   100.11524      12874.121      6724.9433      48.731617      2.3577398     -152929.97     -152693.02    
      4100   99.914747      21737.788      6724.9433      48.731617      2.3577398     -152920.83     -152684.36    
      4200   103.25004      18597.646      6724.9433      48.731617      2.3577398     -152927.18     -152682.81    
      4300   101.19533      27520.276      6724.9433      48.731617      2.3577398     -152932.53     -152693.03    
      4400   98.808493      2977.4014      6724.9433      48.731617      2.3577398     -152942.08     -152708.22    
      4500   94.181651      22370.051      6724.9433      48.731617      2.3577398     -152936.09     -152713.18    
      4600   97.781431      8509.1427      6724.9433      48.731617      2.3577398     -152931.47     -152700.04    
      4700   101.61101      9935.5503      6724.9433      48.731617      2.3577398     -152920.24     -152679.75    
      4800   106.13819     -1750.2771      6724.9433      48.731617      2.3577398     -152922.45     -152671.25    
      4900   98.994265      30019.777      6724.9433      48.731617      2.3577398     -152916.88     -152682.59    
      5000   93.1124       -6705.6576      6724.9433      48.731617      2.3577398     -152924.27     -152703.89    
      5100   96.062428      3148.946       6724.9433      48.731617      2.3577398     -152943.84     -152716.48    
      5200   95.30964       45941.512      6724.9433      48.731617      2.3577398     -152937.31     -152711.74    
      5300   95.30181       22789.569      6724.9433      48.731617      2.3577398     -152918.04     -152692.48    
      5400   105.15536      35679.169      6724.9433      48.731617      2.3577398     -152920.08     -152671.2     
      5500   108.23236      21563.616      6724.9433      48.731617      2.3577398     -152928.79     -152672.63    
      5600   101.6358       34012.7        6724.9433      48.731617      2.3577398     -152931.55     -152691       
      5700   101.67382      14092.52       6724.9433      48.731617      2.3577398     -152944.01     -152703.37    
      5800   98.011037     -6011.7494      6724.9433      48.731617      2.3577398     -152936.78     -152704.81    
      5900   103.04917      33450.09       6724.9433      48.731617      2.3577398     -152943.47     -152699.58    
      6000   98.935219      5204.5714      6724.9433      48.731617      2.3577398     -152931.76     -152697.61    
      6100   99.21618       5906.9469      6724.9433      48.731617      2.3577398     -152928.76     -152693.94    
      6200   101.65123      3720.5551      6724.9433      48.731617      2.3577398     -152929.96     -152689.38    
      6300   101.04991      11157.461      6724.9433      48.731617      2.3577398     -152926.47     -152687.31    
      6400   97.407         14299.842      6724.9433      48.731617      2.3577398     -152922.38     -152691.84    
      6500   105.38731      39481.386      6724.9433      48.731617      2.3577398     -152941.15     -152691.72    
      6600   100.63349      747.9407       6724.9433      48.731617      2.3577398     -152932.42     -152694.24    
      6700   99.570571      43824.516      6724.9433      48.731617      2.3577398     -152934.33     -152698.67    
      6800   97.249411      9529.2816      6724.9433      48.731617      2.3577398     -152928.16     -152697.99    
      6900   96.760529      42614.573      6724.9433      48.731617      2.3577398     -152923.79     -152694.78    
      7000   101.23687     -8927.4996      6724.9433      48.731617      2.3577398     -152928.06     -152688.45    
      7100   100.69798      37178.673      6724.9433      48.731617      2.3577398     -152926.91     -152688.59    
      7200   103.04043     -5433.1814      6724.9433      48.731617      2.3577398     -152936.81     -152692.94    
      7300   101.44069      39066.682      6724.9433      48.731617      2.3577398     -152940.68     -152700.59    
      7400   104.47103     -5056.2744      6724.9433      48.731617      2.3577398     -152955.11     -152707.85    
      7500   98.493887      30437.753      6724.9433      48.731617      2.3577398     -152941.99     -152708.88    
      7600   93.137791      10770.183      6724.9433      48.731617      2.3577398     -152916.39     -152695.96    
      7700   103.17987      11131.531      6724.9433      48.731617      2.3577398     -152921.03     -152676.83    
      7800   104.50449     -5223.9515      6724.9433      48.731617      2.3577398     -152920.74     -152673.4     
      7900   104.38569      28431.995      6724.9433      48.731617      2.3577398     -152932.89     -152685.84    
      8000   98.01093       13423.951      6724.9433      48.731617      2.3577398     -152937.28     -152705.31    
      8100   96.717272      40273.473      6724.9433      48.731617      2.3577398     -152945.99     -152717.08    
      8200   94.546001      10052.195      6724.9433      48.731617      2.3577398     -152932.92     -152709.16    
      8300   103.69775      20337.746      6724.9433      48.731617      2.3577398     -152935.43     -152690       
      8400   101.60462     -1546.8275      6724.9433      48.731617      2.3577398     -152918.64     -152678.16    
      8500   100.10852      12112.329      6724.9433      48.731617      2.3577398     -152921.98     -152685.05    
      8600   95.665558      16837.943      6724.9433      48.731617      2.3577398     -152928.31     -152701.89    
      8700   97.785639      22210.134      6724.9433      48.731617      2.3577398     -152939.64     -152708.2     
      8800   100.61972      29806.985      6724.9433      48.731617      2.3577398     -152936.44     -152698.3     
      8900   103.47807      10778.331      6724.9433      48.731617      2.3577398     -152931.13     -152686.22    
      9000   101.14817     -9923.0605      6724.9433      48.731617      2.3577398     -152926.13     -152686.74    
      9100   97.683055      5040.9066      6724.9433      48.731617      2.3577398     -152931.02     -152699.83    
      9200   94.993899      24606.282      6724.9433      48.731617      2.3577398     -152932.75     -152707.92    
      9300   95.06118       35102.68       6724.9433      48.731617      2.3577398     -152931.23     -152706.24    
      9400   100.42333      13136.839      6724.9433      48.731617      2.3577398     -152931.87     -152694.19    
      9500   104.09166      15205.264      6724.9433      48.731617      2.3577398     -152932.69     -152686.33    
      9600   104.90717     -5733.258       6724.9433      48.731617      2.3577398     -152936.03     -152687.74    
      9700   102.07555      15417.021      6724.9433      48.731617      2.3577398     -152938.91     -152697.32    
      9800   98.213666      11329.841      6724.9433      48.731617      2.3577398     -152939.63     -152707.19    
      9900   102.52346      39258.419      6724.9433      48.731617      2.3577398     -152948.96     -152706.31    
     10000   98.163915      11715.451      6724.9433      48.731617      2.3577398     -152928.08     -152695.74    
     10100   99.535204      53571.076      6724.9433      48.731617      2.3577398     -152921.2      -152685.63    
     10200   106.26043      15586.163      6724.9433      48.731617      2.3577398     -152931.56     -152680.06    
     10300   100.29278      67188.674      6724.9433      48.731617      2.3577398     -152924.01     -152686.64    
     10400   101.4999      -19970.215      6724.9433      48.731617      2.3577398     -152935.86     -152695.64    
     10500   99.646233      55570.078      6724.9433      48.731617      2.3577398     -152943.94     -152708.1     
     10600   96.264822     -775.86885      6724.9433      48.731617      2.3577398     -152942.44     -152714.61    
     10700   98.047618      35677.654      6724.9433      48.731617      2.3577398     -152940.97     -152708.91    
     10800   98.839598     -22180.073      6724.9433      48.731617      2.3577398     -152928.48     -152694.55    
     10900   105.05152      36262.468      6724.9433      48.731617      2.3577398     -152932.03     -152683.4     
     11000   100.58542      6642.9186      6724.9433      48.731617      2.3577398     -152927.04     -152688.98    
     11100   103.07267      39436.779      6724.9433      48.731617      2.3577398     -152941.41     -152697.46    
     11200   101.02236     -7036.635       6724.9433      48.731617      2.3577398     -152942.51     -152703.42    
     11300   103.55876      33646.485      6724.9433      48.731617      2.3577398     -152945.5      -152700.4     
     11400   100.6812       11869.369      6724.9433      48.731617      2.3577398     -152930.47     -152692.19    
     11500   104.18834      6842.6265      6724.9433      48.731617      2.3577398     -152930.29     -152683.71    
     11600   103.49803      13952.428      6724.9433      48.731617      2.3577398     -152931.02     -152686.06    
     11700   97.841626      18012.458      6724.9433      48.731617      2.3577398     -152934.55     -152702.98    
     11800   94.628805      21700.442      6724.9433      48.731617      2.3577398     -152937.34     -152713.37    
     11900   97.30146       13946.393      6724.9433      48.731617      2.3577398     -152940.32     -152710.03    
     12000   99.683342      13898.272      6724.9433      48.731617      2.3577398     -152934.16     -152698.24    
     12100   105.76197      20894.269      6724.9433      48.731617      2.3577398     -152936.28     -152685.97    
     12200   101.14809      19946.695      6724.9433      48.731617      2.3577398     -152922.57     -152683.17    
     12300   98.879967      4809.9963      6724.9433      48.731617      2.3577398     -152923.19     -152689.17    
     12400   99.370037      24065.468      6724.9433      48.731617      2.3577398     -152932.89     -152697.71    
     12500   97.486662     -13339.947      6724.9433      48.731617      2.3577398     -152934.41     -152703.68    
     12600   96.600423      45815.242      6724.9433      48.731617      2.3577398     -152933.11     -152704.48    
     12700   95.638604     -7641.0843      6724.9433      48.731617      2.3577398     -152926.22     -152699.87    
     12800   100.55243      20289.645      6724.9433      48.731617      2.3577398     -152932.1      -152694.11    
     12900   100.09768      1068.0127      6724.9433      48.731617      2.3577398     -152934.7      -152697.79    
     13000   102.07383      48433.791      6724.9433      48.731617      2.3577398     -152945.5      -152703.92    
     13100   97.384193      7036.4473      6724.9433      48.731617      2.3577398     -152939.92     -152709.44    
     13200   101.16811      31372.127      6724.9433      48.731617      2.3577398     -152943        -152703.56    
     13300   100.51343      14060.601      6724.9433      48.731617      2.3577398     -152924.94     -152687.05    
     13400   100.90693      10762.11       6724.9433      48.731617      2.3577398     -152922.47     -152683.65    
     13500   103.15646      12546.974      6724.9433      48.731617      2.3577398     -152937.33     -152693.18    
     13600   96.543421      15161.236      6724.9433      48.731617      2.3577398     -152932.31     -152703.81    
     13700   97.951867     -7782.1713      6724.9433      48.731617      2.3577398     -152938.5      -152706.67    
     13800   103.42115      34580.121      6724.9433      48.731617      2.3577398     -152949.05     -152704.27    
     13900   102.97544     -12685.481      6724.9433      48.731617      2.3577398     -152942.29     -152698.57    
     14000   101.39739      49513.489      6724.9433      48.731617      2.3577398     -152937.71     -152697.72    
     14100   99.509302     -82.585557      6724.9433      48.731617      2.3577398     -152932.19     -152696.68    
     14200   102.30303      42916.685      6724.9433      48.731617      2.3577398     -152938.24     -152696.12    
     14300   99.239167     -15522.367      6724.9433      48.731617      2.3577398     -152926.75     -152691.87    
     14400   101.46903      36636.231      6724.9433      48.731617      2.3577398     -152924.47     -152684.32    
     14500   102.84545      436.0146       6724.9433      48.731617      2.3577398     -152927.78     -152684.37    
     14600   98.452387      25332.087      6724.9433      48.731617      2.3577398     -152935.62     -152702.61    
     14700   100.8112      -13372.985      6724.9433      48.731617      2.3577398     -152945.71     -152707.12    
     14800   98.731054      63089.427      6724.9433      48.731617      2.3577398     -152941.18     -152707.5     
     14900   101.1011      -17924.04       6724.9433      48.731617      2.3577398     -152938.87     -152699.59    
     15000   100.95283      41638.376      6724.9433      48.731617      2.3577398     -152922.02     -152683.09    
     15100   101.17146      1894.8003      6724.9433      48.731617      2.3577398     -152923.39     -152683.94    
     15200   103.51118      38633.391      6724.9433      48.731617      2.3577398     -152940.28     -152695.3     
     15300   101.89333     -11643.897      6724.9433      48.731617      2.3577398     -152939.76     -152698.6     
     15400   98.464667      35233.618      6724.9433      48.731617      2.3577398     -152931.51     -152698.47    
     15500   100.95042     -10347.31       6724.9433      48.731617      2.3577398     -152931.47     -152692.55    
     15600   101.91455      48242.133      6724.9433      48.731617      2.3577398     -152929.49     -152688.28    
     15700   98.874279     -16726.245      6724.9433      48.731617      2.3577398     -152928.57     -152694.56    
     15800   98.909469      33826.594      6724.9433      48.731617      2.3577398     -152943.08     -152708.99    
     15900   99.744213     -6854.6446      6724.9433      48.731617      2.3577398     -152945.54     -152709.47    
     16000   97.24292       30198.681      6724.9433      48.731617      2.3577398     -152928.78     -152698.63    
     16100   100.81827     -4360.8599      6724.9433      48.731617      2.3577398     -152922.65     -152684.03    
     16200   99.736478      35727.984      6724.9433      48.731617      2.3577398     -152921.05     -152685       
     16300   100.21662     -653.19896      6724.9433      48.731617      2.3577398     -152927.89     -152690.7     
     16400   98.528241      36893.489      6724.9433      48.731617      2.3577398     -152934.15     -152700.95    
     16500   101.26728     -5923.5519      6724.9433      48.731617      2.3577398     -152949.89     -152710.21    
     16600   98.361259      52348.385      6724.9433      48.731617      2.3577398     -152944.91     -152712.11    
     16700   102.0005       7272.1394      6724.9433      48.731617      2.3577398     -152941.65     -152700.24    
     16800   100.24776      23953.909      6724.9433      48.731617      2.3577398     -152926.9      -152689.64    
     16900   98.288399      11260.362      6724.9433      48.731617      2.3577398     -152921.44     -152688.81    
     17000   99.194611      24342.581      6724.9433      48.731617      2.3577398     -152926.98     -152692.21    
     17100   95.521027      598.07064      6724.9433      48.731617      2.3577398     -152930.56     -152704.49    
     17200   95.79043       9588.054       6724.9433      48.731617      2.3577398     -152938.15     -152711.44    
     17300   98.868174      8813.7355      6724.9433      48.731617      2.3577398     -152934.67     -152700.67    
     17400   104.10722      41656.74       6724.9433      48.731617      2.3577398     -152932.92     -152686.52    
     17500   101.33164      17708.834      6724.9433      48.731617      2.3577398     -152932.36     -152692.53    
     17600   99.847925      32399.857      6724.9433      48.731617      2.3577398     -152941.29     -152704.98    
     17700   99.8889        17494.478      6724.9433      48.731617      2.3577398     -152944.81     -152708.4     
     17800   97.284074      28618.488      6724.9433      48.731617      2.3577398     -152931.94     -152701.69    
     17900   103.97057      1759.3486      6724.9433      48.731617      2.3577398     -152934.96     -152688.88    
     18000   101.98322      26177.159      6724.9433      48.731617      2.3577398     -152920.84     -152679.47    
     18100   104.63596      2719.0136      6724.9433      48.731617      2.3577398     -152916.85     -152669.2     
     18200   104.27158      16043.546      6724.9433      48.731617      2.3577398     -152931.83     -152685.05    
     18300   97.96278       8619.2203      6724.9433      48.731617      2.3577398     -152930.71     -152698.85    
     18400   98.293205      19110.134      6724.9433      48.731617      2.3577398     -152937.12     -152704.48    
     18500   100.50525      6331.4766      6724.9433      48.731617      2.3577398     -152943.36     -152705.49    
     18600   99.375494      29280.474      6724.9433      48.731617      2.3577398     -152936.5      -152701.3     
     18700   103.7858       8828.8557      6724.9433      48.731617      2.3577398     -152934.4      -152688.76    
     18800   106.66349      11825.636      6724.9433      48.731617      2.3577398     -152935.29     -152682.84    
     18900   101.0758       17168.023      6724.9433      48.731617      2.3577398     -152935.39     -152696.17    
     19000   96.724398      3211.5247      6724.9433      48.731617      2.3577398     -152937.8      -152708.88    
     19100   97.483843      17977.276      6724.9433      48.731617      2.3577398     -152940.36     -152709.63    
     19200   94.218244      25722.701      6724.9433      48.731617      2.3577398     -152925.79     -152702.79    
     19300   98.770719      37189.156      6724.9433      48.731617      2.3577398     -152922.77     -152689       
     19400   100.39008      41247.301      6724.9433      48.731617      2.3577398     -152925.94     -152688.34    
     19500   99.626911      35239.25       6724.9433      48.731617      2.3577398     -152929.21     -152693.42    
     19600   97.62551       32097.878      6724.9433      48.731617      2.3577398     -152933.48     -152702.42    
     19700   96.915747      10298.508      6724.9433      48.731617      2.3577398     -152933.15     -152703.78    
     19800   98.662561      33606.285      6724.9433      48.731617      2.3577398     -152932.11     -152698.6     
     19900   99.817259      18458.555      6724.9433      48.731617      2.3577398     -152934.82     -152698.58    
     20000   101.13069      1832.256       6724.9433      48.731617      2.3577398     -152939.35     -152699.99    
     20100   102.09339     -17293.329      6724.9433      48.731617      2.3577398     -152943.6      -152701.97    
     20200   90.496451     -7628.3776      6724.9433      48.731617      2.3577398     -152921.49     -152707.3     
     20300   98.166901      20768.844      6724.9433      48.731617      2.3577398     -152937.65     -152705.31    
     20400   101.23533     -3904.9115      6724.9433      48.731617      2.3577398     -152932.77     -152693.17    
     20500   100.16976      3915.8104      6724.9433      48.731617      2.3577398     -152920.46     -152683.38    
     20600   103.0597       23891.873      6724.9433      48.731617      2.3577398     -152928.31     -152684.39    
     20700   101.24781      28775.307      6724.9433      48.731617      2.3577398     -152940.97     -152701.34    
     20800   96.996417     -5186.5821      6724.9433      48.731617      2.3577398     -152940.21     -152710.64    
     20900   99.9897        30784.9        6724.9433      48.731617      2.3577398     -152939.44     -152702.79    
     21000   101.53821     -5393.8332      6724.9433      48.731617      2.3577398     -152935.45     -152695.13    
     21100   99.934803      38287.937      6724.9433      48.731617      2.3577398     -152929.67     -152693.14    
     21200   101.20446      2127.5494      6724.9433      48.731617      2.3577398     -152944.8      -152705.28    
     21300   98.298045      44952.251      6724.9433      48.731617      2.3577398     -152950.36     -152717.71    
     21400   97.208943      761.41446      6724.9433      48.731617      2.3577398     -152941.67     -152711.6     
     21500   100.00484      28306.035      6724.9433      48.731617      2.3577398     -152936.06     -152699.37    
     21600   103.04689     -13939.651      6724.9433      48.731617      2.3577398     -152939.7      -152695.81    
     21700   96.56585       3763.3701      6724.9433      48.731617      2.3577398     -152926.71     -152698.16    
     21800   99.677421     -17367.847      6724.9433      48.731617      2.3577398     -152935.18     -152699.27    
     21900   95.986463      28991.709      6724.9433      48.731617      2.3577398     -152938.8      -152711.62    
     22000   96.064973      6158.7114      6724.9433      48.731617      2.3577398     -152946.34     -152718.98    
     22100   97.008142      53341.19       6724.9433      48.731617      2.3577398     -152942.35     -152712.75    
     22200   98.045528     -28494.34       6724.9433      48.731617      2.3577398     -152927.91     -152695.86    
     22300   99.623293      49702.184      6724.9433      48.731617      2.3577398     -152927.91     -152692.13    
     22400   99.782221     -22848.699      6724.9433      48.731617      2.3577398     -152927.01     -152690.85    
     22500   99.766877      50052.304      6724.9433      48.731617      2.3577398     -152938.03     -152701.9     
     22600   98.56779      -10115.428      6724.9433      48.731617      2.3577398     -152946.61     -152713.32    
     22700   96.49218       33930.514      6724.9433      48.731617      2.3577398     -152940.18     -152711.8     
     22800   96.867016     -10195.718      6724.9433      48.731617      2.3577398     -152932.31     -152703.05    
     22900   102.06534      32011.488      6724.9433      48.731617      2.3577398     -152939.82     -152698.26    
     23000   98.17464       3744.4731      6724.9433      48.731617      2.3577398     -152930.34     -152697.98    
     23100   98.553555      21172.288      6724.9433      48.731617      2.3577398     -152933.03     -152699.77    
     23200   96.388261      5116.5288      6724.9433      48.731617      2.3577398     -152930.92     -152702.8     
     23300   97.359812      25390.718      6724.9433      48.731617      2.3577398     -152936.26     -152705.83    
     23400   95.660424      4624.9376      6724.9433      48.731617      2.3577398     -152934.6      -152708.19    
     23500   96.520977      32990.259      6724.9433      48.731617      2.3577398     -152935.72     -152707.28    
     23600   100.91299      23323.531      6724.9433      48.731617      2.3577398     -152935.82     -152696.98    
     23700   101.68849      22306.043      6724.9433      48.731617      2.3577398     -152931.05     -152690.38    
     23800   100.51349      3752.6536      6724.9433      48.731617      2.3577398     -152926.87     -152688.98    
     23900   98.238075      10814.35       6724.9433      48.731617      2.3577398     -152934        -152701.5     
     24000   96.424132      12920.705      6724.9433      48.731617      2.3577398     -152940.36     -152712.15    
     24100   97.151893      28273.131      6724.9433      48.731617      2.3577398     -152936.2      -152706.27    
     24200   97.958288      10146.51       6724.9433      48.731617      2.3577398     -152926.35     -152694.51    
     24300   100.0256       25709.516      6724.9433      48.731617      2.3577398     -152924.22     -152687.48    
     24400   103.04372      28206.175      6724.9433      48.731617      2.3577398     -152931        -152687.12    
     24500   105.59314      11135.502      6724.9433      48.731617      2.3577398     -152941.13     -152691.21    
     24600   99.062823      39255.177      6724.9433      48.731617      2.3577398     -152935.83     -152701.37    
     24700   100.04703     -1793.3784      6724.9433      48.731617      2.3577398     -152943.36     -152706.57    
     24800   97.267753      39856.048      6724.9433      48.731617      2.3577398     -152932.89     -152702.68    
     24900   102.01215     -27714.858      6724.9433      48.731617      2.3577398     -152923.25     -152681.81    
     25000   104.61612      57230.64       6724.9433      48.731617      2.3577398     -152930.49     -152682.89    
     25100   101.81457     -24427.649      6724.9433      48.731617      2.3577398     -152937.44     -152696.47    
     25200   97.661845      41526.98       6724.9433      48.731617      2.3577398     -152933.82     -152702.68    
     25300   102.18901     -17873.111      6724.9433      48.731617      2.3577398     -152942.69     -152700.84    
     25400   96.905589      36700.268      6724.9433      48.731617      2.3577398     -152926.21     -152696.86    
     25500   104.62733     -51274.528      6724.9433      48.731617      2.3577398     -152928.7      -152681.08    
     25600   100.88366      47744.047      6724.9433      48.731617      2.3577398     -152923.22     -152684.45    
     25700   104.97926     -19242.799      6724.9433      48.731617      2.3577398     -152946.55     -152698.09    
     25800   97.885609      53001.139      6724.9433      48.731617      2.3577398     -152936        -152704.33    
     25900   104.6623      -23639.261      6724.9433      48.731617      2.3577398     -152948.27     -152700.56    
     26000   101.1808       51898.948      6724.9433      48.731617      2.3577398     -152932.48     -152693       
     26100   107.47161     -8218.0522      6724.9433      48.731617      2.3577398     -152932.54     -152678.18    
     26200   106.27367      39880.002      6724.9433      48.731617      2.3577398     -152920.19     -152668.67    
     26300   101.3593       4390.8924      6724.9433      48.731617      2.3577398     -152929.65     -152689.75    
     26400   100.16433      32173.848      6724.9433      48.731617      2.3577398     -152938.49     -152701.43    
     26500   99.694078      15950.483      6724.9433      48.731617      2.3577398     -152943.3      -152707.35    
     26600   98.657861      35708.317      6724.9433      48.731617      2.3577398     -152940.45     -152706.95    
     26700   102.21179      296.04004      6724.9433      48.731617      2.3577398     -152940.83     -152698.92    
     26800   105.08364      35401.628      6724.9433      48.731617      2.3577398     -152938.25     -152689.54    
     26900   104.27632      17641.893      6724.9433      48.731617      2.3577398     -152939.54     -152692.75    
     27000   98.855827      21763.315      6724.9433      48.731617      2.3577398     -152945.53     -152711.56    
     27100   98.66057       8906.7208      6724.9433      48.731617      2.3577398     -152945.45     -152711.94    
     27200   97.841134      29084.037      6724.9433      48.731617      2.3577398     -152934.22     -152702.66    
     27300   100.32459     -2965.5381      6724.9433      48.731617      2.3577398     -152933.67     -152696.22    
     27400   97.579757      30212.063      6724.9433      48.731617      2.3577398     -152928.57     -152697.62    
     27500   93.970145     -7427.8492      6724.9433      48.731617      2.3577398     -152938.02     -152715.61    
     27600   94.937981      21747.583      6724.9433      48.731617      2.3577398     -152947.63     -152722.94    
     27700   96.798324     -5254.3776      6724.9433      48.731617      2.3577398     -152941.71     -152712.61    
     27800   95.537046      29631.636      6724.9433      48.731617      2.3577398     -152927.06     -152700.94    
     27900   100.05364     -19760.813      6724.9433      48.731617      2.3577398     -152931.19     -152694.39    
     28000   105.20373      22629.71       6724.9433      48.731617      2.3577398     -152940.76     -152691.77    
     28100   96.442723     -8894.6551      6724.9433      48.731617      2.3577398     -152932.31     -152704.05    
     28200   93.392969      43881.952      6724.9433      48.731617      2.3577398     -152938.63     -152717.6     
     28300   93.61245      -2326.6358      6724.9433      48.731617      2.3577398     -152934.23     -152712.68    
     28400   99.175418      52037.96       6724.9433      48.731617      2.3577398     -152939.36     -152704.64    
     28500   100.50547      14701.649      6724.9433      48.731617      2.3577398     -152937.58     -152699.71    
     28600   101.78107      63450.769      6724.9433      48.731617      2.3577398     -152936.09     -152695.2     
     28700   103.61172      26270.326      6724.9433      48.731617      2.3577398     -152941.83     -152696.61    
     28800   99.120336      25090.32       6724.9433      48.731617      2.3577398     -152933.21     -152698.62    
     28900   100.85826      7340.6757      6724.9433      48.731617      2.3577398     -152938.92     -152700.22    
     29000   97.546155      21378.34       6724.9433      48.731617      2.3577398     -152932.18     -152701.31    
     29100   99.211067      10997.62       6724.9433      48.731617      2.3577398     -152927.32     -152692.52    
     29200   102.17976     -9582.8449      6724.9433      48.731617      2.3577398     -152924.06     -152682.23    
     29300   97.547491      10252.94       6724.9433      48.731617      2.3577398     -152918.81     -152687.94    
     29400   99.283322      23533.193      6724.9433      48.731617      2.3577398     -152941.14     -152706.16    
     29500   98.206456      17658.889      6724.9433      48.731617      2.3577398     -152938.82     -152706.39    
     29600   102.21504      13211.389      6724.9433      48.731617      2.3577398     -152944.6      -152702.68    
     29700   102.61698      14632.087      6724.9433      48.731617      2.3577398     -152936.22     -152693.35    
     29800   105.30212      23878.795      6724.9433      48.731617      2.3577398     -152930.68     -152681.46    
     29900   99.598353      33364.051      6724.9433      48.731617      2.3577398     -152922.09     -152686.36    
     30000   96.652445     -1413.71        6724.9433      48.731617      2.3577398     -152934.65     -152705.89    
     30100   97.820902      41265.051      6724.9433      48.731617      2.3577398     -152936.01     -152704.49    
     30200   97.696141      3451.2904      6724.9433      48.731617      2.3577398     -152925.84     -152694.62    
     30300   101.35456      35006.109      6724.9433      48.731617      2.3577398     -152927.4      -152687.51    
     30400   102.94711      12223.008      6724.9433      48.731617      2.3577398     -152938.93     -152695.28    
     30500   98.072554      15424.308      6724.9433      48.731617      2.3577398     -152936.32     -152704.2     
     30600   100.0227       29983.98       6724.9433      48.731617      2.3577398     -152940.49     -152703.76    
     30700   100.33028      21112.287      6724.9433      48.731617      2.3577398     -152943.14     -152705.68    
     30800   100.1015       21150.755      6724.9433      48.731617      2.3577398     -152945.84     -152708.92    
     30900   99.152168      20229.698      6724.9433      48.731617      2.3577398     -152946.61     -152711.94    
     31000   99.630688      28645.291      6724.9433      48.731617      2.3577398     -152939.97     -152704.16    
     31100   100.38135      29754.673      6724.9433      48.731617      2.3577398     -152928.56     -152690.98    
     31200   100.79727      18572.675      6724.9433      48.731617      2.3577398     -152927.25     -152688.68    
     31300   98.847959      9245.6848      6724.9433      48.731617      2.3577398     -152931.32     -152697.37    
     31400   96.987487      26651.626      6724.9433      48.731617      2.3577398     -152944.99     -152715.44    
     31500   97.913135      18219.208      6724.9433      48.731617      2.3577398     -152946.93     -152715.2     
     31600   99.363285      11108.291      6724.9433      48.731617      2.3577398     -152942.25     -152707.08    
     31700   100.43075      8971.8974      6724.9433      48.731617      2.3577398     -152938.59     -152700.89    
     31800   101.30368      31580.811      6724.9433      48.731617      2.3577398     -152941.83     -152702.07    
     31900   97.407813      3618.5435      6724.9433      48.731617      2.3577398     -152941.7      -152711.16    
     32000   94.696633      16911.316      6724.9433      48.731617      2.3577398     -152953.94     -152729.82    
     32100   97.494395      20237.144      6724.9433      48.731617      2.3577398     -152955.99     -152725.24    
     32200   101.08032      5485.5921      6724.9433      48.731617      2.3577398     -152949.87     -152710.63    
     32300   102.12344      29633.838      6724.9433      48.731617      2.3577398     -152944.82     -152703.12    
     32400   100.58007      3134.3294      6724.9433      48.731617      2.3577398     -152932.52     -152694.47    
     32500   101.23373      27620.787      6724.9433      48.731617      2.3577398     -152927.96     -152688.36    
     32600   101.95847      18151.861      6724.9433      48.731617      2.3577398     -152938.76     -152697.45    
     32700   95.457257      20718.081      6724.9433      48.731617      2.3577398     -152941.97     -152716.04    
     32800   93.755403      16303.714      6724.9433      48.731617      2.3577398     -152935.62     -152713.72    
     32900   97.582236      7623.6116      6724.9433      48.731617      2.3577398     -152934.14     -152703.19    
     33000   101.49923      25419.113      6724.9433      48.731617      2.3577398     -152934.98     -152694.75    
     33100   95.391222     -10051.919      6724.9433      48.731617      2.3577398     -152920.24     -152694.47    
     33200   97.956992      15024.452      6724.9433      48.731617      2.3577398     -152928.87     -152697.03    
     33300   98.490345      14257.847      6724.9433      48.731617      2.3577398     -152937.54     -152704.44    
     33400   98.180752      19048.429      6724.9433      48.731617      2.3577398     -152939.52     -152707.14    
     33500   102.30433      15980.829      6724.9433      48.731617      2.3577398     -152940.71     -152698.58    
     33600   103.2648       19103.577      6724.9433      48.731617      2.3577398     -152932.65     -152688.24    
     33700   103.25537      5372.9929      6724.9433      48.731617      2.3577398     -152932.33     -152687.95    
     33800   99.671911      17526.137      6724.9433      48.731617      2.3577398     -152945.09     -152709.19    
     33900   96.477074      31319.25       6724.9433      48.731617      2.3577398     -152940.5      -152712.16    
     34000   99.8275        24119.415      6724.9433      48.731617      2.3577398     -152936.76     -152700.49    
     34100   100.887       -9436.9107      6724.9433      48.731617      2.3577398     -152931.69     -152692.92    
     34200   97.917537      7415.1053      6724.9433      48.731617      2.3577398     -152927.75     -152696.01    
     34300   98.950614     -1917.9288      6724.9433      48.731617      2.3577398     -152938.88     -152704.69    
     34400   94.604814      29665.966      6724.9433      48.731617      2.3577398     -152947.08     -152723.18    
     34500   92.147459      12611.742      6724.9433      48.731617      2.3577398     -152942.93     -152724.84    
     34600   97.4361        27497.016      6724.9433      48.731617      2.3577398     -152943.25     -152712.65    
     34700   101.56677      34270.626      6724.9433      48.731617      2.3577398     -152944.23     -152703.84    
     34800   97.834733      21030.823      6724.9433      48.731617      2.3577398     -152929.95     -152698.4     
     34900   104.84935      24338.677      6724.9433      48.731617      2.3577398     -152940.21     -152692.06    
     35000   100.45673      21412.577      6724.9433      48.731617      2.3577398     -152935.43     -152697.68    
     35100   99.653475      25846.818      6724.9433      48.731617      2.3577398     -152945.95     -152710.09    
     35200   97.935589      23405.068      6724.9433      48.731617      2.3577398     -152945.59     -152713.8     
     35300   100.92789     -8015.4077      6724.9433      48.731617      2.3577398     -152938.1      -152699.23    
     35400   101.16911      46613.521      6724.9433      48.731617      2.3577398     -152930.25     -152690.81    
     35500   96.853658     -9948.5981      6724.9433      48.731617      2.3577398     -152922.09     -152692.86    
     35600   97.673955      34449.941      6724.9433      48.731617      2.3577398     -152930.17     -152699       
     35700   101.86982      19289.902      6724.9433      48.731617      2.3577398     -152945.71     -152704.61    
     35800   95.110551      5247.7049      6724.9433      48.731617      2.3577398     -152936.61     -152711.51    
     35900   93.957994      2330.7202      6724.9433      48.731617      2.3577398     -152950.33     -152727.96    
     36000   96.322667      17874.357      6724.9433      48.731617      2.3577398     -152952.2      -152724.22    
     36100   102.59473      15960.576      6724.9433      48.731617      2.3577398     -152951.44     -152708.62    
     36200   95.824635      33962.263      6724.9433      48.731617      2.3577398     -152927.19     -152700.4     
     36300   103.68585     -2023.3328      6724.9433      48.731617      2.3577398     -152937.98     -152692.58    
     36400   102.64392      22872.842      6724.9433      48.731617      2.3577398     -152937.52     -152694.59    
     36500   99.840678      22577.255      6724.9433      48.731617      2.3577398     -152936.7      -152700.4     
     36600   98.75738       10803.43       6724.9433      48.731617      2.3577398     -152949.42     -152715.69    
     36700   100.3456       20948.992      6724.9433      48.731617      2.3577398     -152956.85     -152719.35    
     36800   98.067322      22609.184      6724.9433      48.731617      2.3577398     -152942.27     -152710.16    
     36900   97.756052      9623.9782      6724.9433      48.731617      2.3577398     -152928.15     -152696.79    
     37000   102.31276      24897.799      6724.9433      48.731617      2.3577398     -152936.68     -152694.53    
     37100   102.03103      28018.838      6724.9433      48.731617      2.3577398     -152936.22     -152694.74    
     37200   101.13747      16348.07       6724.9433      48.731617      2.3577398     -152940.86     -152701.49    
     37300   98.289962      43330.075      6724.9433      48.731617      2.3577398     -152950.27     -152717.64    
     37400   98.004386      6595.1188      6724.9433      48.731617      2.3577398     -152949.64     -152717.69    
     37500   97.865676      50740.37       6724.9433      48.731617      2.3577398     -152937.64     -152706.01    
     37600   96.326319     -653.99549      6724.9433      48.731617      2.3577398     -152929.05     -152701.07    
     37700   97.832793      34202.579      6724.9433      48.731617      2.3577398     -152931.99     -152700.44    
     37800   103.49781     -5711.1714      6724.9433      48.731617      2.3577398     -152938.8      -152693.84    
     37900   102.25979      29045.627      6724.9433      48.731617      2.3577398     -152938.25     -152696.22    
     38000   96.069549     -4302.6877      6724.9433      48.731617      2.3577398     -152941.56     -152714.19    
     38100   97.805824      18208.809      6724.9433      48.731617      2.3577398     -152949.3      -152717.82    
     38200   100.58039     -11357.515      6724.9433      48.731617      2.3577398     -152952.43     -152714.38    
     38300   101.83461      21358.368      6724.9433      48.731617      2.3577398     -152941.42     -152700.4     
     38400   100.21435      1027.2595      6724.9433      48.731617      2.3577398     -152927.25     -152690.07    
     38500   100.63309      26673.768      6724.9433      48.731617      2.3577398     -152933.63     -152695.46    
     38600   104.68729      9040.9641      6724.9433      48.731617      2.3577398     -152951.59     -152703.82    
     38700   94.791879      48724.975      6724.9433      48.731617      2.3577398     -152936.98     -152712.63    
     38800   98.746378      27931.539      6724.9433      48.731617      2.3577398     -152948.18     -152714.47    
     38900   102.76473      49536.547      6724.9433      48.731617      2.3577398     -152955.8      -152712.58    
     39000   99.264329     -15516.938      6724.9433      48.731617      2.3577398     -152942.72     -152707.78    
     39100   101.73288      41895.234      6724.9433      48.731617      2.3577398     -152940.4      -152699.62    
     39200   103.26085     -25908.416      6724.9433      48.731617      2.3577398     -152939.25     -152694.86    
     39300   101.16542      29339.199      6724.9433      48.731617      2.3577398     -152947.39     -152707.96    
     39400   97.33074       5926.4157      6724.9433      48.731617      2.3577398     -152950.07     -152719.71    
     39500   95.255098      19310.632      6724.9433      48.731617      2.3577398     -152943.36     -152717.91    
     39600   102.32231      16501.174      6724.9433      48.731617      2.3577398     -152950.65     -152708.48    
     39700   98.862367      12242.685      6724.9433      48.731617      2.3577398     -152939.88     -152705.9     
     39800   101.5493       23702.861      6724.9433      48.731617      2.3577398     -152946.9      -152706.55    
     39900   102.4302       4562.796       6724.9433      48.731617      2.3577398     -152952.45     -152710.02    
     40000   104.31713      6873.7905      6724.9433      48.731617      2.3577398     -152958.71     -152711.81    
     40100   94.524562      19970.715      6724.9433      48.731617      2.3577398     -152940.22     -152716.51    
     40200   101.16461      4710.9014      6724.9433      48.731617      2.3577398     -152956.77     -152717.34    
     40300   98.182593      24745.95       6724.9433      48.731617      2.3577398     -152939.36     -152706.99    
     40400   103.50903      20413.939      6724.9433      48.731617      2.3577398     -152941.21     -152696.23    
     40500   105.80885      11272.162      6724.9433      48.731617      2.3577398     -152947.34     -152696.92    
     40600   99.114107      14092.566      6724.9433      48.731617      2.3577398     -152945.84     -152711.26    
     40700   98.364665      8951.8035      6724.9433      48.731617      2.3577398     -152951.57     -152718.76    
     40800   96.993581      20861.314      6724.9433      48.731617      2.3577398     -152945.27     -152715.71    
     40900   100.26633     -4141.8575      6724.9433      48.731617      2.3577398     -152947.39     -152710.09    
     41000   96.80849       7987.5325      6724.9433      48.731617      2.3577398     -152940.58     -152711.46    
     41100   100.39828      1576.6208      6724.9433      48.731617      2.3577398     -152949.33     -152711.71    
     41200   96.82311       23817.789      6724.9433      48.731617      2.3577398     -152942.19     -152713.03    
     41300   99.252582     -3524.6405      6724.9433      48.731617      2.3577398     -152950.36     -152715.45    
     41400   97.753068      37850.635      6724.9433      48.731617      2.3577398     -152964.51     -152733.15    
     41500   97.227588     -21583.815      6724.9433      48.731617      2.3577398     -152970.77     -152740.66    
     41600   95.475642      43315.567      6724.9433      48.731617      2.3577398     -152957.05     -152731.08    
     41700   100.5428       17835.211      6724.9433      48.731617      2.3577398     -152955.32     -152717.36    
     41800   96.356752      32182.821      6724.9433      48.731617      2.3577398     -152940.03     -152711.98    
     41900   99.255427      34353.757      6724.9433      48.731617      2.3577398     -152942.67     -152707.76    
     42000   100.9844       30080.636      6724.9433      48.731617      2.3577398     -152947.03     -152708.03    
     42100   101.41774      52521.336      6724.9433      48.731617      2.3577398     -152961.29     -152721.26    
     42200   98.108139      13561.04       6724.9433      48.731617      2.3577398     -152955.67     -152723.47    
     42300   98.653227      27294.216      6724.9433      48.731617      2.3577398     -152942.88     -152709.39    
     42400   101.7814       18141.881      6724.9433      48.731617      2.3577398     -152939.05     -152698.16    
     42500   103.32067     -5440.7573      6724.9433      48.731617      2.3577398     -152948.72     -152704.18    
     42600   101.39383      26426.99       6724.9433      48.731617      2.3577398     -152954.94     -152714.96    
     42700   97.152188     -1069.8974      6724.9433      48.731617      2.3577398     -152946.19     -152716.26    
     42800   97.101463      2435.7968      6724.9433      48.731617      2.3577398     -152943        -152713.19    
     42900   101.92986     -28287.567      6724.9433      48.731617      2.3577398     -152947.76     -152706.51    
     43000   101.33213      22475.939      6724.9433      48.731617      2.3577398     -152936.13     -152696.3     
     43100   104.90939      13691.849      6724.9433      48.731617      2.3577398     -152935.73     -152687.44    
     43200   103.2144       7476.5897      6724.9433      48.731617      2.3577398     -152944.67     -152700.39    
     43300   99.141003      15902.432      6724.9433      48.731617      2.3577398     -152947.91     -152713.27    
     43400   99.881064      7976.2918      6724.9433      48.731617      2.3577398     -152952.36     -152715.97    
     43500   103.29959      26070.622      6724.9433      48.731617      2.3577398     -152962.74     -152718.25    
     43600   99.163453      32063.599      6724.9433      48.731617      2.3577398     -152957.08     -152722.38    
     43700   100.51591      5646.3748      6724.9433      48.731617      2.3577398     -152952.11     -152714.21    
     43800   102.90287      16768.32       6724.9433      48.731617      2.3577398     -152945.8      -152702.25    
     43900   103.0007       25033.368      6724.9433      48.731617      2.3577398     -152944.55     -152700.77    
     44000   97.633212      31320.689      6724.9433      48.731617      2.3577398     -152945.5      -152714.43    
     44100   94.341458     -16494.805      6724.9433      48.731617      2.3577398     -152945.66     -152722.37    
     44200   99.367073      8463.9897      6724.9433      48.731617      2.3577398     -152952.43     -152717.25    
     44300   102.84507      23883.131      6724.9433      48.731617      2.3577398     -152955.26     -152711.85    
     44400   101.40851      27858.211      6724.9433      48.731617      2.3577398     -152947.2      -152707.19    
     44500   104.44809      1295.6261      6724.9433      48.731617      2.3577398     -152950.97     -152703.77    
     44600   103.29561      10771.384      6724.9433      48.731617      2.3577398     -152957.9      -152713.42    
     44700   95.922775      20591.547      6724.9433      48.731617      2.3577398     -152954.65     -152727.63    
     44800   95.877178      22231.55       6724.9433      48.731617      2.3577398     -152953.02     -152726.1     
     44900   98.359089      9527.6271      6724.9433      48.731617      2.3577398     -152948.98     -152716.19    
     45000   101.1974       27695.227      6724.9433      48.731617      2.3577398     -152949.61     -152710.1     
     45100   102.7974       30728.311      6724.9433      48.731617      2.3577398     -152954.25     -152710.96    
     45200   99.123673     -7652.3658      6724.9433      48.731617      2.3577398     -152947.15     -152712.55    
     45300   103.26375      13418.655      6724.9433      48.731617      2.3577398     -152958.49     -152714.09    
     45400   96.99946       26220.073      6724.9433      48.731617      2.3577398     -152951.74     -152722.16    
     45500   99.783322     -1807.5977      6724.9433      48.731617      2.3577398     -152956.82     -152720.65    
     45600   97.744063      22726.664      6724.9433      48.731617      2.3577398     -152941.23     -152709.89    
     45700   103.33328     -2886.8365      6724.9433      48.731617      2.3577398     -152945.21     -152700.64    
     45800   101.07519      5372.2485      6724.9433      48.731617      2.3577398     -152940.35     -152701.13    
     45900   100.87828      21901.618      6724.9433      48.731617      2.3577398     -152957.37     -152718.61    
     46000   99.040795      13518.649      6724.9433      48.731617      2.3577398     -152960.93     -152726.53    
     46100   97.111447      37635.245      6724.9433      48.731617      2.3577398     -152951.45     -152721.61    
     46200   100.94871     -7113.9629      6724.9433      48.731617      2.3577398     -152945.93     -152707.01    
     46300   104.22629      41737.299      6724.9433      48.731617      2.3577398     -152949.89     -152703.21    
     46400   99.457774      1721.53        6724.9433      48.731617      2.3577398     -152946.28     -152710.89    
     46500   101.05268      20707.946      6724.9433      48.731617      2.3577398     -152959.92     -152720.75    
     46600   99.588335      2078.1123      6724.9433      48.731617      2.3577398     -152959.22     -152723.51    
     46700   96.324484      23495.895      6724.9433      48.731617      2.3577398     -152947.42     -152719.45    
     46800   100.89166     -5950.4444      6724.9433      48.731617      2.3577398     -152941.04     -152702.25    
     46900   103.6135       32756.178      6724.9433      48.731617      2.3577398     -152939.61     -152694.38    
     47000   104.04218     -25243.912      6724.9433      48.731617      2.3577398     -152946.33     -152700.09    
     47100   97.631854      38026.847      6724.9433      48.731617      2.3577398     -152943.65     -152712.58    
     47200   94.725811     -30028.437      6724.9433      48.731617      2.3577398     -152943.7      -152719.51    
     47300   98.690312      47213.722      6724.9433      48.731617      2.3577398     -152950.68     -152717.11    
     47400   99.527838     -19395.382      6724.9433      48.731617      2.3577398     -152940.52     -152704.96    
     47500   101.33152      41005.01       6724.9433      48.731617      2.3577398     -152932.6      -152692.77    
     47600   99.427058      8223.6553      6724.9433      48.731617      2.3577398     -152937.03     -152701.71    
     47700   103.39027      39141.441      6724.9433      48.731617      2.3577398     -152955.36     -152710.66    
     47800   98.859686     -7765.7029      6724.9433      48.731617      2.3577398     -152944.18     -152710.21    
     47900   100.85066      25572.583      6724.9433      48.731617      2.3577398     -152945.18     -152706.49    
     48000   98.044722     -412.43925      6724.9433      48.731617      2.3577398     -152937.98     -152705.94    
     48100   96.25526       28131.119      6724.9433      48.731617      2.3577398     -152946.79     -152718.98    
     48200   97.183136      2056.217       6724.9433      48.731617      2.3577398     -152959.28     -152729.27    
     48300   96.596465      18100.667      6724.9433      48.731617      2.3577398     -152952.15     -152723.53    
     48400   100.62049     -2855.2273      6724.9433      48.731617      2.3577398     -152947.12     -152708.98    
     48500   99.280337     -17289.633      6724.9433      48.731617      2.3577398     -152941.27     -152706.3     
     48600   98.272026      30035.344      6724.9433      48.731617      2.3577398     -152941.28     -152708.69    
     48700   96.775137     -7420.2335      6724.9433      48.731617      2.3577398     -152948.95     -152719.9     
     48800   99.368133      23296.74       6724.9433      48.731617      2.3577398     -152963.65     -152728.47    
     48900   99.809683      21381          6724.9433      48.731617      2.3577398     -152961.19     -152724.96    
     49000   101.41269      24533.535      6724.9433      48.731617      2.3577398     -152946.28     -152706.26    
     49100   100.96944      14344.752      6724.9433      48.731617      2.3577398     -152939.49     -152700.52    
     49200   101.65503      27743.983      6724.9433      48.731617      2.3577398     -152942.19     -152701.59    
     49300   100.95832      25737.366      6724.9433      48.731617      2.3577398     -152953.61     -152714.66    
     49400   99.709164      46826.754      6724.9433      48.731617      2.3577398     -152959.28     -152723.29    
     49500   97.260155      15531.521      6724.9433      48.731617      2.3577398     -152953.15     -152722.95    
     49600   98.677811      37510.888      6724.9433      48.731617      2.3577398     -152948.66     -152715.11    
     49700   104.12139      6312.0963      6724.9433      48.731617      2.3577398     -152950.59     -152704.16    
     49800   105.66377      3933.0104      6724.9433      48.731617      2.3577398     -152936.46     -152686.37    
     49900   109.21251      34026.124      6724.9433      48.731617      2.3577398     -152936.7      -152678.22    
     50000   103.60424     -8453.1256      6724.9433      48.731617      2.3577398     -152940.79     -152695.59    
     50100   97.857147      18297.439      6724.9433      48.731617      2.3577398     -152941.41     -152709.81    
     50200   97.736967      15794.075      6724.9433      48.731617      2.3577398     -152947.7      -152716.38    
     50300   97.396665     -1496.4459      6724.9433      48.731617      2.3577398     -152946.2      -152715.68    
     50400   101.53965      51981.728      6724.9433      48.731617      2.3577398     -152950.52     -152710.2     
     50500   100.75572     -7949.7903      6724.9433      48.731617      2.3577398     -152946.25     -152707.78    
     50600   101.51196      37143.997      6724.9433      48.731617      2.3577398     -152948.53     -152708.27    
     50700   102.26         873.26518      6724.9433      48.731617      2.3577398     -152960.77     -152718.74    
     50800   96.185652      50639.314      6724.9433      48.731617      2.3577398     -152955.05     -152727.4     
     50900   100.4201      -20373.161      6724.9433      48.731617      2.3577398     -152962.17     -152724.5     
     51000   101.16004      56319.627      6724.9433      48.731617      2.3577398     -152944.66     -152705.23    
     51100   103.98833      13019.428      6724.9433      48.731617      2.3577398     -152945.35     -152699.24    
     51200   99.50297       45164.718      6724.9433      48.731617      2.3577398     -152944.12     -152708.62    
     51300   99.1676        18471.712      6724.9433      48.731617      2.3577398     -152951.88     -152717.17    
     51400   97.098297      58744.83       6724.9433      48.731617      2.3577398     -152949.22     -152719.42    
     51500   99.555419     -20003.179      6724.9433      48.731617      2.3577398     -152939.35     -152703.73    
     51600   103.22699      46467.082      6724.9433      48.731617      2.3577398     -152939.83     -152695.52    
     51700   98.621357     -6877.606       6724.9433      48.731617      2.3577398     -152937.72     -152704.31    
     51800   100.26019      23076.033      6724.9433      48.731617      2.3577398     -152954.32     -152717.03    
     51900   98.665162      21475.914      6724.9433      48.731617      2.3577398     -152957.05     -152723.53    
     52000   94.362144      11030.461      6724.9433      48.731617      2.3577398     -152942.99     -152719.66    
     52100   103.89316      22943.295      6724.9433      48.731617      2.3577398     -152950.26     -152704.37    
     52200   102.75386      22769.632      6724.9433      48.731617      2.3577398     -152946.66     -152703.46    
     52300   102.62705      42513.092      6724.9433      48.731617      2.3577398     -152949.18     -152706.29    
     52400   95.283126     -10389.873      6724.9433      48.731617      2.3577398     -152939.33     -152713.82    
     52500   96.979262      33282.811      6724.9433      48.731617      2.3577398     -152951.72     -152722.19    
     52600   97.996043     -8324.7194      6724.9433      48.731617      2.3577398     -152961.55     -152729.62    
     52700   96.613302      22852.621      6724.9433      48.731617      2.3577398     -152960.33     -152731.66    
     52800   100.44131      11310.189      6724.9433      48.731617      2.3577398     -152953.95     -152716.22    
     52900   98.698075      32020.475      6724.9433      48.731617      2.3577398     -152941.79     -152708.19    
     53000   99.742654     -22327.18       6724.9433      48.731617      2.3577398     -152939.23     -152703.16    
     53100   102.76925      26902.91       6724.9433      48.731617      2.3577398     -152945.23     -152702       
     53200   99.884503      6330.1651      6724.9433      48.731617      2.3577398     -152944.93     -152708.53    
     53300   99.826831      16375.127      6724.9433      48.731617      2.3577398     -152955.21     -152718.94    
     53400   100.34152      26850.144      6724.9433      48.731617      2.3577398     -152958.11     -152720.62    
     53500   100.54847     -6022.5192      6724.9433      48.731617      2.3577398     -152947.53     -152709.55    
     53600   102.06706      33032.613      6724.9433      48.731617      2.3577398     -152939.75     -152698.18    
     53700   102.97601      20848.752      6724.9433      48.731617      2.3577398     -152944.78     -152701.06    
     53800   97.289806      4013.4446      6724.9433      48.731617      2.3577398     -152949.29     -152719.03    
     53900   96.963616      22921.642      6724.9433      48.731617      2.3577398     -152952.51     -152723.02    
     54000   99.295995      13599.597      6724.9433      48.731617      2.3577398     -152950.28     -152715.27    
     54100   99.639632      7391.1111      6724.9433      48.731617      2.3577398     -152939.63     -152703.81    
     54200   102.01562      15299.044      6724.9433      48.731617      2.3577398     -152948.1      -152706.65    
     54300   104.39231      1491.3392      6724.9433      48.731617      2.3577398     -152959.68     -152712.61    
     54400   98.701359      43123.959      6724.9433      48.731617      2.3577398     -152947.6      -152714       
     54500   98.792921      1440.3815      6724.9433      48.731617      2.3577398     -152948.47     -152714.65    
     54600   96.873443      38938.609      6724.9433      48.731617      2.3577398     -152943.49     -152714.21    
     54700   99.491902     -9367.2641      6724.9433      48.731617      2.3577398     -152941.52     -152706.04    
     54800   102.22107      45562.833      6724.9433      48.731617      2.3577398     -152943.83     -152701.9     
     54900   103.25047     -10262.808      6724.9433      48.731617      2.3577398     -152954.17     -152709.8     
     55000   93.895403      52584.524      6724.9433      48.731617      2.3577398     -152945.67     -152723.45    
     55100   101.96542      19524.457      6724.9433      48.731617      2.3577398     -152961.79     -152720.47    
     55200   95.262876      24237.79       6724.9433      48.731617      2.3577398     -152942.62     -152717.16    
     55300   101.33011      2966.154       6724.9433      48.731617      2.3577398     -152940.11     -152700.28    
     55400   103.8434       35027.049      6724.9433      48.731617      2.3577398     -152934.87     -152689.09    
     55500   104.81276     -4254.7076      6724.9433      48.731617      2.3577398     -152946.76     -152698.7     
     55600   100.14002      24825.12       6724.9433      48.731617      2.3577398     -152947.8      -152710.8     
     55700   102.79394      24072.268      6724.9433      48.731617      2.3577398     -152960.42     -152717.13    
     55800   99.534818      20118.472      6724.9433      48.731617      2.3577398     -152956.5      -152720.92    
     55900   102.21676      20116.346      6724.9433      48.731617      2.3577398     -152954.77     -152712.84    
     56000   105.86627      4454.2224      6724.9433      48.731617      2.3577398     -152946.69     -152696.13    
     56100   98.713657      13184.1        6724.9433      48.731617      2.3577398     -152932.87     -152699.24    
     56200   99.485334      7996.6659      6724.9433      48.731617      2.3577398     -152947.15     -152711.69    
     56300   97.817852      8241.9181      6724.9433      48.731617      2.3577398     -152948.99     -152717.48    
     56400   95.790489      32727.669      6724.9433      48.731617      2.3577398     -152943.02     -152716.31    
     56500   103.27854      18351.092      6724.9433      48.731617      2.3577398     -152951.38     -152706.94    
     56600   96.726524      9018.6208      6724.9433      48.731617      2.3577398     -152932.93     -152704       
     56700   94.950122     -15382.858      6724.9433      48.731617      2.3577398     -152942.86     -152718.14    
     56800   98.969943      16104.016      6724.9433      48.731617      2.3577398     -152963.35     -152729.11    
     56900   98.753692      7719.5623      6724.9433      48.731617      2.3577398     -152957.31     -152723.59    
     57000   103.00224      34524.449      6724.9433      48.731617      2.3577398     -152955.3      -152711.52    
     57100   100.40041     -23765.43       6724.9433      48.731617      2.3577398     -152944.68     -152707.06    
     57200   100.18989      46830.634      6724.9433      48.731617      2.3577398     -152945.95     -152708.82    
     57300   101.20376     -5340.694       6724.9433      48.731617      2.3577398     -152948.75     -152709.22    
     57400   102.16309      31769.59       6724.9433      48.731617      2.3577398     -152949.26     -152707.46    
     57500   99.560845     -10301.454      6724.9433      48.731617      2.3577398     -152945.17     -152709.54    
     57600   97.500891      34648.196      6724.9433      48.731617      2.3577398     -152953.67     -152722.9     
     57700   95.780747      2844.2369      6724.9433      48.731617      2.3577398     -152954.44     -152727.75    
     57800   101.04655      16193.969      6724.9433      48.731617      2.3577398     -152953.72     -152714.57    
     57900   100.88979      13304.071      6724.9433      48.731617      2.3577398     -152946.52     -152707.74    
     58000   100.55481      9845.4225      6724.9433      48.731617      2.3577398     -152946.66     -152708.67    
     58100   97.11613       30128.374      6724.9433      48.731617      2.3577398     -152944.66     -152714.81    
     58200   99.829812      4413.1117      6724.9433      48.731617      2.3577398     -152950.17     -152713.9     
     58300   103.96523      16909.348      6724.9433      48.731617      2.3577398     -152957.21     -152711.15    
     58400   103.50122      35418.193      6724.9433      48.731617      2.3577398     -152955.45     -152710.49    
     58500   99.984703      752.69897      6724.9433      48.731617      2.3577398     -152944.3      -152707.66    
     58600   102.79192      27933.849      6724.9433      48.731617      2.3577398     -152947.85     -152704.56    
     58700   99.682204      3102.7676      6724.9433      48.731617      2.3577398     -152944.26     -152708.33    
     58800   98.351437      2706.2744      6724.9433      48.731617      2.3577398     -152948.62     -152715.85    
     58900   96.049699      16119.568      6724.9433      48.731617      2.3577398     -152948.51     -152721.19    
     59000   95.49217       28254.712      6724.9433      48.731617      2.3577398     -152953        -152726.99    
     59100   104.55044      20933.747      6724.9433      48.731617      2.3577398     -152968.08     -152720.64    
     59200   104.63691      25781.721      6724.9433      48.731617      2.3577398     -152955.21     -152707.56    
     59300   102.21815     -5174.5553      6724.9433      48.731617      2.3577398     -152947.06     -152705.13    
     59400   99.144703      44631.644      6724.9433      48.731617      2.3577398     -152948.56     -152713.91    
     59500   95.184683      20954.085      6724.9433      48.731617      2.3577398     -152953.96     -152728.68    
     59600   95.901705      3092.2197      6724.9433      48.731617      2.3577398     -152959.52     -152732.55    
     59700   98.306556      14838.024      6724.9433      48.731617      2.3577398     -152947.9      -152715.23    
     59800   103.48052      21396.864      6724.9433      48.731617      2.3577398     -152954.25     -152709.34    
     59900   97.727465      46688.241      6724.9433      48.731617      2.3577398     -152944.85     -152713.55    
     60000   99.583124      19011.495      6724.9433      48.731617      2.3577398     -152952.34     -152716.65    
     60100   99.288311      31170.698      6724.9433      48.731617      2.3577398     -152955.51     -152720.51    
     60200   99.572384     -3186.3301      6724.9433      48.731617      2.3577398     -152965.03     -152729.36    
     60300   96.756696      19931.398      6724.9433      48.731617      2.3577398     -152962.37     -152733.37    
     60400   98.66754       7690.5554      6724.9433      48.731617      2.3577398     -152950.17     -152716.64    
     60500   101.93387      9062.7376      6724.9433      48.731617      2.3577398     -152947.98     -152706.73    
     60600   102.79294      7952.1681      6724.9433      48.731617      2.3577398     -152951.52     -152708.24    
     60700   98.126444      50487.748      6724.9433      48.731617      2.3577398     -152949.17     -152716.92    
     60800   96.139997      8033.4695      6724.9433      48.731617      2.3577398     -152948.57     -152721.03    
     60900   101.46301      22393.168      6724.9433      48.731617      2.3577398     -152948.97     -152708.83    
     61000   106.92295      27446.925      6724.9433      48.731617      2.3577398     -152951.94     -152698.88    
     61100   99.269676      8212.2275      6724.9433      48.731617      2.3577398     -152944.04     -152709.1     
     61200   96.516273      7020.7264      6724.9433      48.731617      2.3577398     -152947.97     -152719.54    
     61300   98.091379      15307.878      6724.9433      48.731617      2.3577398     -152952.91     -152720.75    
     61400   96.195896      26561.928      6724.9433      48.731617      2.3577398     -152946.81     -152719.14    
     61500   103.01942      10124.546      6724.9433      48.731617      2.3577398     -152954.69     -152710.87    
     61600   98.547091      18163.771      6724.9433      48.731617      2.3577398     -152943.37     -152710.13    
     61700   96.285364      5324.7421      6724.9433      48.731617      2.3577398     -152949.99     -152722.1     
     61800   94.172167      30053.108      6724.9433      48.731617      2.3577398     -152957.33     -152734.44    
     61900   97.564736      899.39458      6724.9433      48.731617      2.3577398     -152955.44     -152724.53    
     62000   96.895426      6182.4634      6724.9433      48.731617      2.3577398     -152940.96     -152711.63    
     62100   101.56044      36332.82       6724.9433      48.731617      2.3577398     -152942.58     -152702.21    
     62200   101.7574      -17121.811      6724.9433      48.731617      2.3577398     -152939.05     -152698.22    
     62300   100.32358      27540.999      6724.9433      48.731617      2.3577398     -152947.24     -152709.8     
     62400   97.108613     -3979.7051      6724.9433      48.731617      2.3577398     -152954.78     -152724.95    
     62500   97.96758       7520.0223      6724.9433      48.731617      2.3577398     -152953.97     -152722.11    
     62600   97.972765      16978.382      6724.9433      48.731617      2.3577398     -152947.29     -152715.41    
     62700   101.349        13341.527      6724.9433      48.731617      2.3577398     -152942.08     -152702.21    
     62800   99.395406      3042.6534      6724.9433      48.731617      2.3577398     -152931.33     -152696.09    
     62900   101.04936      19571.228      6724.9433      48.731617      2.3577398     -152939.98     -152700.82    
     63000   102.08988      12728.121      6724.9433      48.731617      2.3577398     -152948.27     -152706.65    
     63100   99.257009      27602.668      6724.9433      48.731617      2.3577398     -152949.56     -152714.64    
     63200   99.406281      8588.0396      6724.9433      48.731617      2.3577398     -152954.96     -152719.68    
     63300   100.04119      43005.674      6724.9433      48.731617      2.3577398     -152953.42     -152716.65    
     63400   103.54723      5995.3091      6724.9433      48.731617      2.3577398     -152941.84     -152696.77    
     63500   105.14393      46448.08       6724.9433      48.731617      2.3577398     -152940.13     -152691.28    
     63600   104.84477      30633.461      6724.9433      48.731617      2.3577398     -152949.58     -152701.44    
     63700   99.473713     -4900.4557      6724.9433      48.731617      2.3577398     -152950.91     -152715.48    
     63800   94.889683      40825.957      6724.9433      48.731617      2.3577398     -152942.23     -152717.65    
     63900   102.10747      7214.0309      6724.9433      48.731617      2.3577398     -152950.94     -152709.28    
     64000   98.035193      15479.771      6724.9433      48.731617      2.3577398     -152938.83     -152706.8     
     64100   101.95073      20121.602      6724.9433      48.731617      2.3577398     -152953.59     -152712.3     
     64200   94.424459      11540          6724.9433      48.731617      2.3577398     -152953.2      -152729.72    
     64300   97.379117      13699.279      6724.9433      48.731617      2.3577398     -152959.03     -152728.55    
     64400   97.902715      9176.2379      6724.9433      48.731617      2.3577398     -152949.72     -152718.01    
     64500   102.63666      32290.01       6724.9433      48.731617      2.3577398     -152948.93     -152706.02    
[...]
    384200   102.08023     -485.16945      6724.9433      48.731617      2.3577398     -152946.88     -152705.28    
    384300   101.79963      23387.213      6724.9433      48.731617      2.3577398     -152954.27     -152713.34    
    384400   99.197978     -8412.234       6724.9433      48.731617      2.3577398     -152956.74     -152721.96    
    384500   96.83272       37130.793      6724.9433      48.731617      2.3577398     -152957.25     -152728.07    
    384600   99.814853      3976.0747      6724.9433      48.731617      2.3577398     -152958.66     -152722.43    
    384700   103.92917      32661.054      6724.9433      48.731617      2.3577398     -152952.09     -152706.11    
    384800   103.87746      7101.2623      6724.9433      48.731617      2.3577398     -152952.6      -152706.75    
    384900   98.031431      11264.822      6724.9433      48.731617      2.3577398     -152952.1      -152720.09    
    385000   100.00903      15074.239      6724.9433      48.731617      2.3577398     -152964.77     -152728.07    
    385100   98.552025      11692.245      6724.9433      48.731617      2.3577398     -152961        -152727.76    
    385200   98.581365      18251.874      6724.9433      48.731617      2.3577398     -152956.87     -152723.56    
    385300   100.36424      26101.203      6724.9433      48.731617      2.3577398     -152947.55     -152710.01    
    385400   101.10903     -780.41739      6724.9433      48.731617      2.3577398     -152947.12     -152707.82    
    385500   97.607169      11191.585      6724.9433      48.731617      2.3577398     -152944.64     -152713.63    
    385600   101.21189     -12079.513      6724.9433      48.731617      2.3577398     -152958.57     -152719.02    
    385700   98.223085      55817.85       6724.9433      48.731617      2.3577398     -152954.64     -152722.17    
    385800   100.24854     -32828.157      6724.9433      48.731617      2.3577398     -152953.85     -152716.58    
    385900   105.35168      29044.514      6724.9433      48.731617      2.3577398     -152957.63     -152708.29    
    386000   101.30884     -7045.0186      6724.9433      48.731617      2.3577398     -152946.22     -152706.45    
    386100   102.23445      14408.705      6724.9433      48.731617      2.3577398     -152960.62     -152718.65    
    386200   100.74135      21750.439      6724.9433      48.731617      2.3577398     -152966.92     -152728.49    
    386300   98.072777      16950.83       6724.9433      48.731617      2.3577398     -152960.64     -152728.53    
    386400   95.91219      -1204.4947      6724.9433      48.731617      2.3577398     -152945.63     -152718.63    
    386500   101.02365      9106.2476      6724.9433      48.731617      2.3577398     -152942.93     -152703.84    
    386600   103.45643      25679.258      6724.9433      48.731617      2.3577398     -152953.06     -152708.21    
    386700   100.47812     -11656.404      6724.9433      48.731617      2.3577398     -152956.52     -152718.72    
    386800   101.38692      41259.75       6724.9433      48.731617      2.3577398     -152959.9      -152719.94    
    386900   101.12293     -24414.098      6724.9433      48.731617      2.3577398     -152958.32     -152718.99    
    387000   100.48054      41440.729      6724.9433      48.731617      2.3577398     -152953.35     -152715.54    
    387100   104.77781      16023.835      6724.9433      48.731617      2.3577398     -152959.73     -152711.75    
    387200   98.06171       17190.102      6724.9433      48.731617      2.3577398     -152948.93     -152716.84    
    387300   95.294651      36148.912      6724.9433      48.731617      2.3577398     -152952.52     -152726.98    
    387400   95.852914      25407.011      6724.9433      48.731617      2.3577398     -152955.01     -152728.15    
    387500   100.03769      9187.1815      6724.9433      48.731617      2.3577398     -152948.51     -152711.74    
    387600   106.9164       47728.537      6724.9433      48.731617      2.3577398     -152958.33     -152705.28    
    387700   101.86029      647.95306      6724.9433      48.731617      2.3577398     -152952.93     -152711.85    
    387800   98.621361      38900.065      6724.9433      48.731617      2.3577398     -152949.94     -152716.53    
    387900   101.88077     -8384.4633      6724.9433      48.731617      2.3577398     -152957.19     -152716.06    
    388000   97.066923      30016.486      6724.9433      48.731617      2.3577398     -152954.93     -152725.19    
    388100   95.768716      16383.889      6724.9433      48.731617      2.3577398     -152970.77     -152744.1     
    388200   95.794904      41573.502      6724.9433      48.731617      2.3577398     -152969.48     -152742.76    
    388300   97.265533     -4738.4258      6724.9433      48.731617      2.3577398     -152962.89     -152732.68    
    388400   101.49277      39272.72       6724.9433      48.731617      2.3577398     -152963.42     -152723.21    
    388500   101.16682      6382.5993      6724.9433      48.731617      2.3577398     -152952.28     -152712.84    
    388600   103.63066      3463.577       6724.9433      48.731617      2.3577398     -152952.81     -152707.54    
    388700   99.759455      32116.052      6724.9433      48.731617      2.3577398     -152953.45     -152717.35    
    388800   93.630786     -8071.1791      6724.9433      48.731617      2.3577398     -152954        -152732.4     
    388900   96.116549      16769.163      6724.9433      48.731617      2.3577398     -152957.02     -152729.53    
    389000   96.997164     -10757.371      6724.9433      48.731617      2.3577398     -152950.15     -152720.58    
    389100   100.71479      8087.1627      6724.9433      48.731617      2.3577398     -152949.02     -152710.65    
    389200   102.19526     -1049.6172      6724.9433      48.731617      2.3577398     -152955.13     -152713.25    
    389300   100.2557       15801.494      6724.9433      48.731617      2.3577398     -152964.92     -152727.64    
    389400   95.391646      7468.7672      6724.9433      48.731617      2.3577398     -152961.52     -152735.75    
    389500   98.726687      44237.793      6724.9433      48.731617      2.3577398     -152962.76     -152729.1     
    389600   100.43879      11007.253      6724.9433      48.731617      2.3577398     -152954.4      -152716.68    
    389700   97.651199      40146.636      6724.9433      48.731617      2.3577398     -152941.55     -152710.43    
    389800   101.93741      3325.9444      6724.9433      48.731617      2.3577398     -152953.82     -152712.56    
    389900   97.618574      30426.89       6724.9433      48.731617      2.3577398     -152960.63     -152729.59    
    390000   97.52726       3009.1399      6724.9433      48.731617      2.3577398     -152967.17     -152736.34    
    390100   96.057986      4144.9775      6724.9433      48.731617      2.3577398     -152959.14     -152731.79    
    390200   97.287727     -11255.59       6724.9433      48.731617      2.3577398     -152951.76     -152721.51    
    390300   99.653261      29263.607      6724.9433      48.731617      2.3577398     -152953.02     -152717.16    
    390400   101.84915      15994.413      6724.9433      48.731617      2.3577398     -152960.88     -152719.83    
    390500   97.034505      26227.61       6724.9433      48.731617      2.3577398     -152957.07     -152727.41    
    390600   94.847759     -5689.4055      6724.9433      48.731617      2.3577398     -152960.56     -152736.08    
    390700   95.968324      10466.482      6724.9433      48.731617      2.3577398     -152968.52     -152741.38    
    390800   98.971512      36346.149      6724.9433      48.731617      2.3577398     -152963.32     -152729.08    
    390900   101.01203      7540.535       6724.9433      48.731617      2.3577398     -152957.66     -152718.58    
    391000   100.37725      38089.797      6724.9433      48.731617      2.3577398     -152956.25     -152718.69    
    391100   96.523657     -17416.92       6724.9433      48.731617      2.3577398     -152951.28     -152722.83    
    391200   96.161896      43491.243      6724.9433      48.731617      2.3577398     -152955.21     -152727.62    
    391300   100.58752     -24496.236      6724.9433      48.731617      2.3577398     -152958.99     -152720.93    
    391400   102.20767      5747.8713      6724.9433      48.731617      2.3577398     -152949.66     -152707.75    
    391500   102.3758       9994.2908      6724.9433      48.731617      2.3577398     -152948.43     -152706.13    
    391600   97.72859       33595.484      6724.9433      48.731617      2.3577398     -152949.57     -152718.27    
    391700   96.299243     -2195.059       6724.9433      48.731617      2.3577398     -152958.67     -152730.76    
    391800   98.193901      30762.799      6724.9433      48.731617      2.3577398     -152958.56     -152726.16    
    391900   99.108459     -18235.927      6724.9433      48.731617      2.3577398     -152956.9      -152722.33    
    392000   101.91713      7157.5298      6724.9433      48.731617      2.3577398     -152959        -152717.79    
    392100   105.00229      11140.178      6724.9433      48.731617      2.3577398     -152953.09     -152704.57    
    392200   105.48736      22650.667      6724.9433      48.731617      2.3577398     -152946.13     -152696.46    
    392300   99.492074      35530.607      6724.9433      48.731617      2.3577398     -152948.09     -152712.62    
    392400   94.887136      12195.643      6724.9433      48.731617      2.3577398     -152947.52     -152722.94    
    392500   99.596797      25239.096      6724.9433      48.731617      2.3577398     -152959.75     -152724.03    
    392600   101.06005      24138.566      6724.9433      48.731617      2.3577398     -152964.51     -152725.33    
    392700   101.25154      23630.414      6724.9433      48.731617      2.3577398     -152963.2      -152723.56    
    392800   101.69912      18340.242      6724.9433      48.731617      2.3577398     -152951.77     -152711.07    
    392900   102.7234       3254.4811      6724.9433      48.731617      2.3577398     -152946.05     -152702.93    
    393000   103.90239      41191.125      6724.9433      48.731617      2.3577398     -152954.51     -152708.6     
    393100   96.380414      24613.477      6724.9433      48.731617      2.3577398     -152953.14     -152725.03    
    393200   101.33234      23220.634      6724.9433      48.731617      2.3577398     -152968.07     -152728.24    
    393300   100.1859       11548.366      6724.9433      48.731617      2.3577398     -152961.97     -152724.86    
    393400   101.25931      18535.436      6724.9433      48.731617      2.3577398     -152956.02     -152716.37    
    393500   100.48904      38888.459      6724.9433      48.731617      2.3577398     -152951.52     -152713.69    
    393600   101.59043      1582.3641      6724.9433      48.731617      2.3577398     -152956.14     -152715.7     
    393700   98.187556      47960.775      6724.9433      48.731617      2.3577398     -152957.44     -152725.06    
    393800   97.818622      10575.711      6724.9433      48.731617      2.3577398     -152963.08     -152731.57    
    393900   96.236015      25349.603      6724.9433      48.731617      2.3577398     -152956.81     -152729.04    
    394000   102.73511      14163.304      6724.9433      48.731617      2.3577398     -152954.98     -152711.83    
    394100   100.12955      33019.555      6724.9433      48.731617      2.3577398     -152946.42     -152709.43    
    394200   104.30034      8301.5286      6724.9433      48.731617      2.3577398     -152961.04     -152714.18    
    394300   99.40058       42440.761      6724.9433      48.731617      2.3577398     -152962.7      -152727.44    
    394400   93.517161     -9746.3978      6724.9433      48.731617      2.3577398     -152952.2      -152730.87    
    394500   98.542664     -7217.9445      6724.9433      48.731617      2.3577398     -152959.92     -152726.69    
    394600   103.01468      6147.9791      6724.9433      48.731617      2.3577398     -152962.53     -152718.72    
    394700   98.383079      6314.2702      6724.9433      48.731617      2.3577398     -152945.54     -152712.69    
    394800   102.56985      852.25999      6724.9433      48.731617      2.3577398     -152950.89     -152708.13    
    394900   100.66321      31155.157      6724.9433      48.731617      2.3577398     -152956.65     -152718.41    
    395000   97.94675       29551.545      6724.9433      48.731617      2.3577398     -152962.93     -152731.11    
    395100   100.54996      6967.655       6724.9433      48.731617      2.3577398     -152968.27     -152730.3     
    395200   103.65596      45242.462      6724.9433      48.731617      2.3577398     -152961.71     -152716.38    
    395300   101.06558      6681.4238      6724.9433      48.731617      2.3577398     -152949.5      -152710.3     
    395400   102.86571      15596.839      6724.9433      48.731617      2.3577398     -152957.11     -152713.66    
    395500   99.108192      23146.375      6724.9433      48.731617      2.3577398     -152955.42     -152720.86    
    395600   98.821185      2432.1256      6724.9433      48.731617      2.3577398     -152957.64     -152723.75    
    395700   96.38886       19543.79       6724.9433      48.731617      2.3577398     -152954.1      -152725.97    
    395800   101.26766      27749.276      6724.9433      48.731617      2.3577398     -152957.49     -152717.81    
    395900   103.41038      24788.629      6724.9433      48.731617      2.3577398     -152956.65     -152711.9     
    396000   101.49503      21470.371      6724.9433      48.731617      2.3577398     -152951.64     -152711.42    
    396100   94.539774      7605.5127      6724.9433      48.731617      2.3577398     -152944.72     -152720.97    
    396200   95.898774      13531.964      6724.9433      48.731617      2.3577398     -152959.44     -152732.47    
    396300   100.41621      27938.77       6724.9433      48.731617      2.3577398     -152969.87     -152732.21    
    396400   103.61186      12100.153      6724.9433      48.731617      2.3577398     -152958.92     -152713.69    
    396500   104.20885      19909.77       6724.9433      48.731617      2.3577398     -152952.86     -152706.22    
    396600   103.71615      11383.617      6724.9433      48.731617      2.3577398     -152958.8      -152713.33    
    396700   98.147592      22526.124      6724.9433      48.731617      2.3577398     -152958.07     -152725.77    
    396800   92.46191       30093.295      6724.9433      48.731617      2.3577398     -152947.81     -152728.97    
    396900   100.09979     -6225.3061      6724.9433      48.731617      2.3577398     -152955.98     -152719.07    
    397000   99.221343      8997.3135      6724.9433      48.731617      2.3577398     -152950.03     -152715.19    
    397100   101.65544      23727.405      6724.9433      48.731617      2.3577398     -152957.05     -152716.46    
    397200   96.916851      28990.324      6724.9433      48.731617      2.3577398     -152960.99     -152731.61    
    397300   100.48018      11904.398      6724.9433      48.731617      2.3577398     -152974.6      -152736.79    
    397400   99.217856      34903.643      6724.9433      48.731617      2.3577398     -152960.67     -152725.84    
    397500   98.239786      2182.9114      6724.9433      48.731617      2.3577398     -152946.54     -152714.03    
    397600   100.08464      24287.967      6724.9433      48.731617      2.3577398     -152947.98     -152711.11    
    397700   101.10538     -7769.3758      6724.9433      48.731617      2.3577398     -152955.7      -152716.41    
    397800   98.429144      50575.21       6724.9433      48.731617      2.3577398     -152967.07     -152734.11    
    397900   95.584686     -10874.432      6724.9433      48.731617      2.3577398     -152961.46     -152735.23    
    398000   99.242103      23183.866      6724.9433      48.731617      2.3577398     -152960.98     -152726.1     
    398100   100.3805      -12017.775      6724.9433      48.731617      2.3577398     -152955.71     -152718.13    
    398200   100.02801      18569.524      6724.9433      48.731617      2.3577398     -152952.33     -152715.59    
    398300   101.54023      19938.121      6724.9433      48.731617      2.3577398     -152955.86     -152715.54    
    398400   101.1494       41300.944      6724.9433      48.731617      2.3577398     -152960.58     -152721.18    
    398500   97.860388     -3410.0412      6724.9433      48.731617      2.3577398     -152966.11     -152734.5     
    398600   95.269934      14735.198      6724.9433      48.731617      2.3577398     -152961.02     -152735.54    
    398700   100.88575      654.80418      6724.9433      48.731617      2.3577398     -152959.66     -152720.89    
    398800   98.552658      41214.285      6724.9433      48.731617      2.3577398     -152946.32     -152713.07    
    398900   99.939119     -5743.2043      6724.9433      48.731617      2.3577398     -152946.92     -152710.39    
    399000   103.4105       31693.451      6724.9433      48.731617      2.3577398     -152959.85     -152715.1     
    399100   96.012424     -146.76717      6724.9433      48.731617      2.3577398     -152958.08     -152730.84    
    399200   96.190994      5792.3074      6724.9433      48.731617      2.3577398     -152969.43     -152741.77    
    399300   98.939926     -2820.9117      6724.9433      48.731617      2.3577398     -152968.34     -152734.17    
    399400   98.978105      22595.153      6724.9433      48.731617      2.3577398     -152947.07     -152712.81    
    399500   98.676625     -7209.4671      6724.9433      48.731617      2.3577398     -152945.15     -152711.6     
    399600   101.14753      26847.311      6724.9433      48.731617      2.3577398     -152958.06     -152718.66    
    399700   96.837555      12922.335      6724.9433      48.731617      2.3577398     -152957.78     -152728.59    
    399800   97.213226      14418.78       6724.9433      48.731617      2.3577398     -152956.12     -152726.04    
    399900   105.10838      10924.164      6724.9433      48.731617      2.3577398     -152958.87     -152710.1     
    400000   98.806775      7004.0578      6724.9433      48.731617      2.3577398     -152943.98     -152710.13    
    400011   98.290693     -9891.9897      6724.9433      48.731617      2.3577398     -152943.05     -152710.42    
Loop time of 15167.2 on 64 procs for 400000 steps with 795 atoms

Performance: 0.570 ns/day, 42.131 hours/ns, 26.373 timesteps/s
99.6% CPU use with 64 MPI tasks x 1 OpenMP threads

MPI task timing breakdown:
Section |  min time  |  avg time  |  max time  |%varavg| %total
---------------------------------------------------------------
Pair    | 8808       | 11083      | 13808      |1379.8 | 73.07
Neigh   | 27.63      | 35.153     | 43.856     |  75.5 |  0.23
Comm    | 154.95     | 2595.4     | 4866.1     |2554.1 | 17.11
Output  | 0.51371    | 6.9461     | 10.244     | 163.8 |  0.05
Modify  | 1142.3     | 1443.3     | 2377.7     | 912.0 |  9.52
Other   |            | 2.965      |            |       |  0.02

Nlocal:        12.4219 ave          16 max           8 min
Histogram: 1 1 13 5 0 16 8 5 13 2
Nghost:        2185.17 ave        2533 max        1885 min
Histogram: 5 6 5 8 12 11 4 6 4 3
Neighs:        6827.22 ave        9082 max        3495 min
Histogram: 1 4 6 5 10 5 9 8 3 13

Total # of neighbors = 436942
Ave neighs/atom = 549.61258
Neighbor list builds = 3289
Dangerous builds = 0

write_data graphene_single_layer_ReaxFF_750_C_temp_100K.data ### MODIFY FILE NAME ###
System init for write_data ...
Total wall time: 4:12:49
