
# System definition
read_data graphene_single_layer_x-45_y-45_795_C.data ### MODIFY FILE NAME ###
Reading data file ...
  orthogonal box = (-1.4464652 -1.4423034 -1.42) to (47.285152 47.149102 1.42)
  8 by 8 by 1 MPI processor grid
  reading atoms ...
  795 atoms
  reading velocities ...
  795 velocities
  read_data CPU = 0.034 seconds

pair_style reax/c NULL
pair_coeff * * ffield.reax.cho C
Reading potential file ffield.reax.cho with DATE: 2011-02-18
fix qeq_reax all qeq/reax 1 0.0 10.0 1.0e-6 reax/c


# Minimization
timestep 0.25
min_style cg
thermo 100
thermo_style custom step temp press vol lx density pe etotal
dump 2 all custom 1000 graphene_single_layer_ReaxFF_795_C_temp_1200K.lammpstrj id type x y z ### MODIFY FILE NAME ###
minimize 1.0e-6 1.0e-6 100 1000

CITE-CITE-CITE-CITE-CITE-CITE-CITE-CITE-CITE-CITE-CITE-CITE-CITE

Your simulation uses code contributions which should be cited:

- pair reaxff command:

@Article{Aktulga12,
 author = {H. M. Aktulga, J. C. Fogarty, S. A. Pandit, A. Y. Grama},
 title = {Parallel reactive molecular dynamics: Numerical methods and algorithmic techniques},
 journal = {Parallel Computing},
 year =    2012,
 volume =  38,
 pages =   {245--259}
}

- fix qeq/reaxff command:

@Article{Aktulga12,
 author = {H. M. Aktulga, J. C. Fogarty, S. A. Pandit, A. Y. Grama},
 title = {Parallel reactive molecular dynamics: Numerical methods and algorithmic techniques},
 journal = {Parallel Computing},
 year =    2012,
 volume =  38,
 pages =   {245--259}
}

CITE-CITE-CITE-CITE-CITE-CITE-CITE-CITE-CITE-CITE-CITE-CITE-CITE

WARNING: Using 'neigh_modify every 1 delay 0 check yes' setting during minimization (src/min.cpp:187)
Neighbor list info ...
  update every 1 steps, delay 0 steps, check yes
  max neighbors/atom: 10000, page size: 100000
  master list distance cutoff = 10.4
  ghost atom cutoff = 10.4
  binsize = 5.2, bins = 10 10 1
  2 neighbor lists, perpetual/occasional/extra = 2 0 0
  (1) pair reax/c, perpetual
      attributes: half, newton off, ghost
      pair build: half/bin/newtoff/ghost
      stencil: full/ghost/bin/3d
      bin: standard
  (2) fix qeq/reax, perpetual, copy from (1)
      attributes: half, newton off
      pair build: copy
      stencil: none
      bin: none
Per MPI rank memory allocation (min/avg/max) = 36.37 | 41.41 | 47.38 Mbytes
   Step          Temp          Press          Volume           Lx          Density         PotEng         TotEng    
         0   923            34054.396      6724.9433      48.731617      2.3577398     -151766.67     -149582.14    
        11   923            35396.792      6724.9433      48.731617      2.3577398     -151904.55     -149720.03    
Loop time of 2.17834 on 64 procs for 11 steps with 795 atoms

99.2% CPU use with 64 MPI tasks x 1 OpenMP threads

Minimization stats:
  Stopping criterion = energy tolerance
  Energy initial, next-to-last, final = 
     -151766.666472543  -151904.508881892  -151904.547898656
  Force two-norm initial, final = 279.94165 356.09863
  Force max component initial, final = 137.99181 55.448555
  Final line search alpha, max atom move = 0.00038853166 0.021543519
  Iterations, force evaluations = 11 32

MPI task timing breakdown:
Section |  min time  |  avg time  |  max time  |%varavg| %total
---------------------------------------------------------------
Pair    | 0.87072    | 1.255      | 1.7986     |  17.5 | 57.61
Neigh   | 0.011212   | 0.018622   | 0.025843   |   2.2 |  0.85
Comm    | 0.046437   | 0.47567    | 0.89499    |  25.2 | 21.84
Output  | 0          | 0          | 0          |   0.0 |  0.00
Modify  | 0.30339    | 0.31076    | 0.31817    |   0.5 | 14.27
Other   |            | 0.1183     |            |       |  5.43

Nlocal:        12.4219 ave          15 max          10 min
Histogram: 15 0 0 0 22 0 12 0 0 15
Nghost:        2194.12 ave        2559 max        1869 min
Histogram: 2 8 9 4 12 12 5 4 6 2
Neighs:        6807.34 ave        8856 max        4476 min
Histogram: 4 8 3 7 7 13 5 2 0 15

Total # of neighbors = 435670
Ave neighs/atom = 548.01258
Neighbor list builds = 1
Dangerous builds = 0

fix 1 all nvt temp 1200.0 1200.0 $(100.0*dt)  ### MODIFY INIT TEMP, FINAL TEMP ###
fix 1 all nvt temp 1200.0 1200.0 25  
run 400000
Per MPI rank memory allocation (min/avg/max) = 35.25 | 40.29 | 46.26 Mbytes
   Step          Temp          Press          Volume           Lx          Density         PotEng         TotEng    
        11   923            35396.792      6724.9433      48.731617      2.3577398     -151904.55     -149720.03    
       100   608.93605      28876.114      6724.9433      48.731617      2.3577398     -150934.06     -149492.85    
       200   629.08395      193641.86      6724.9433      48.731617      2.3577398     -150536.28     -149047.38    
       300   860.77296      6096.0443      6724.9433      48.731617      2.3577398     -150542.46     -148505.21    
       400   1021.3315     -54619.457      6724.9433      48.731617      2.3577398     -150291.14     -147873.89    
       500   1160.2928      65480.263      6724.9433      48.731617      2.3577398     -150022.32     -147276.18    
       600   1225.3513      43498.611      6724.9433      48.731617      2.3577398     -149711.67     -146811.56    
       700   1241.227       39046.616      6724.9433      48.731617      2.3577398     -149534.34     -146596.65    
       800   1221.4056      58035.871      6724.9433      48.731617      2.3577398     -149642.69     -146751.91    
       900   1179.2267      93559.355      6724.9433      48.731617      2.3577398     -149908.37     -147117.42    
      1000   1158.6687      20395.458      6724.9433      48.731617      2.3577398     -150073.05     -147330.75    
      1100   1145.6165      27228.962      6724.9433      48.731617      2.3577398     -150047.11     -147335.71    
      1200   1187.9598     -18962.944      6724.9433      48.731617      2.3577398     -150006.35     -147194.74    
      1300   1235.774       38870.411      6724.9433      48.731617      2.3577398     -150005.81     -147081.03    
      1400   1184.9416      25946.894      6724.9433      48.731617      2.3577398     -149902.26     -147097.78    
      1500   1218.953       32081.611      6724.9433      48.731617      2.3577398     -150032.2      -147147.23    
      1600   1164.7873     -20878.226      6724.9433      48.731617      2.3577398     -150012.59     -147255.81    
      1700   1155.9629     -1488.3118      6724.9433      48.731617      2.3577398     -150031.08     -147295.19    
      1800   1235.0609      30644.408      6724.9433      48.731617      2.3577398     -150224.7      -147301.6     
      1900   1147.5407      39957.447      6724.9433      48.731617      2.3577398     -150011.35     -147295.39    
      2000   1193.809      -40407.335      6724.9433      48.731617      2.3577398     -150060.48     -147235.02    
      2100   1215.4507      43522.026      6724.9433      48.731617      2.3577398     -150016.43     -147139.74    
      2200   1233.4374      51467.735      6724.9433      48.731617      2.3577398     -150011.74     -147092.48    
      2300   1252.5559      37624.967      6724.9433      48.731617      2.3577398     -150058.47     -147093.96    
      2400   1228.4644     -6317.166       6724.9433      48.731617      2.3577398     -150097.78     -147190.3     
      2500   1196.4563      47046.418      6724.9433      48.731617      2.3577398     -150154.17     -147322.44    
      2600   1169.8151      62633.49       6724.9433      48.731617      2.3577398     -150136.79     -147368.12    
      2700   1105.3323     -9206.3956      6724.9433      48.731617      2.3577398     -149897.84     -147281.78    
      2800   1228.5308      35606.964      6724.9433      48.731617      2.3577398     -150060.26     -147152.61    
      2900   1205.7775      9749.9557      6724.9433      48.731617      2.3577398     -149965.66     -147111.87    
      3000   1230.8331     -21683.984      6724.9433      48.731617      2.3577398     -150089.31     -147176.22    
      3100   1179.2686      31257.886      6724.9433      48.731617      2.3577398     -150129.15     -147338.1     
      3200   1164.9858     -2940.7782      6724.9433      48.731617      2.3577398     -150204.95     -147447.7     
      3300   1176.0976      18782.484      6724.9433      48.731617      2.3577398     -150147.29     -147363.75    
      3400   1202.043       70332.794      6724.9433      48.731617      2.3577398     -150059.61     -147214.66    
      3500   1276.9782      43706.366      6724.9433      48.731617      2.3577398     -150148.9      -147126.6     
      3600   1230.2179      46237.897      6724.9433      48.731617      2.3577398     -150155.64     -147244       
      3700   1172.953       54662.172      6724.9433      48.731617      2.3577398     -150140.31     -147364.21    
      3800   1191.7474      14875.737      6724.9433      48.731617      2.3577398     -150177.88     -147357.3     
      3900   1205.6818      60373.581      6724.9433      48.731617      2.3577398     -150191.29     -147337.72    
      4000   1204.5208     -6354.114       6724.9433      48.731617      2.3577398     -150194.1      -147343.28    
      4100   1165.5704      43391.828      6724.9433      48.731617      2.3577398     -150145.42     -147386.79    
      4200   1175.0113      25124.728      6724.9433      48.731617      2.3577398     -150276.51     -147495.53    
      4300   1161.1493      61300.584      6724.9433      48.731617      2.3577398     -150224.23     -147476.06    
      4400   1198.5587      4222.6408      6724.9433      48.731617      2.3577398     -150112.9      -147276.2     
      4500   1172.3342      13606.158      6724.9433      48.731617      2.3577398     -149996.68     -147222.05    
      4600   1202.6522     -7960.7939      6724.9433      48.731617      2.3577398     -150089.8      -147243.41    
      4700   1167.6802      27240.322      6724.9433      48.731617      2.3577398     -150141.14     -147377.52    
      4800   1179.183       15841.526      6724.9433      48.731617      2.3577398     -150232.38     -147441.54    
      4900   1172.051       6050.8913      6724.9433      48.731617      2.3577398     -150095.91     -147321.94    
      5000   1226.4296      76623.901      6724.9433      48.731617      2.3577398     -150038.4      -147135.73    
      5100   1190.0657      8153.6813      6724.9433      48.731617      2.3577398     -149952.87     -147136.26    
      5200   1199.3892      284.01385      6724.9433      48.731617      2.3577398     -150111.53     -147272.86    
      5300   1160.5539      34661.358      6724.9433      48.731617      2.3577398     -150126.45     -147379.7     
      5400   1227.0007      18805.96       6724.9433      48.731617      2.3577398     -150273.77     -147369.75    
      5500   1227.3287      45283.916      6724.9433      48.731617      2.3577398     -150242.3      -147337.51    
      5600   1194.5872      15384.978      6724.9433      48.731617      2.3577398     -150008.12     -147180.82    
      5700   1249.3297      24821.7        6724.9433      48.731617      2.3577398     -150012.18     -147055.31    
      5800   1182.1832      42998.807      6724.9433      48.731617      2.3577398     -149965.18     -147167.24    
      5900   1227.3671      253.0131       6724.9433      48.731617      2.3577398     -150244.66     -147339.77    
      6000   1184.2036     -26683.76       6724.9433      48.731617      2.3577398     -150203.43     -147400.7     
      6100   1182.9489      15473.771      6724.9433      48.731617      2.3577398     -150125.7      -147325.94    
      6200   1187.5008      59794.786      6724.9433      48.731617      2.3577398     -149991.07     -147180.54    
      6300   1278.9049      11602.196      6724.9433      48.731617      2.3577398     -150055.86     -147029       
      6400   1269.3216      66494.554      6724.9433      48.731617      2.3577398     -149824.43     -146820.25    
      6500   1213.4773      31376.423      6724.9433      48.731617      2.3577398     -149799.71     -146927.7     
      6600   1227.4824      33900.779      6724.9433      48.731617      2.3577398     -149972.56     -147067.4     
      6700   1199.4297      46290.383      6724.9433      48.731617      2.3577398     -149982.05     -147143.29    
      6800   1171.4171      9240.9339      6724.9433      48.731617      2.3577398     -150051.75     -147279.29    
      6900   1197.3892      21055.509      6724.9433      48.731617      2.3577398     -150174.43     -147340.49    
      7000   1191.6215      39269.276      6724.9433      48.731617      2.3577398     -150129.56     -147309.28    
      7100   1208.0005     -10712.931      6724.9433      48.731617      2.3577398     -150146.84     -147287.79    
      7200   1245.9884     -37930.763      6724.9433      48.731617      2.3577398     -150249.4      -147300.44    
      7300   1199.5531      82541.755      6724.9433      48.731617      2.3577398     -150169.76     -147330.71    
      7400   1194.9598      107515.51      6724.9433      48.731617      2.3577398     -150133.98     -147305.79    
      7500   1227.7353     -7773.5522      6724.9433      48.731617      2.3577398     -150133.05     -147227.29    
      7600   1201.623       15779.513      6724.9433      48.731617      2.3577398     -149959.43     -147115.48    
      7700   1248.7586      22455.993      6724.9433      48.731617      2.3577398     -150101.66     -147146.14    
      7800   1209.6016      4430.7387      6724.9433      48.731617      2.3577398     -150232.18     -147369.34    
      7900   1220.1894     -599.51404      6724.9433      48.731617      2.3577398     -150294.74     -147406.84    
      8000   1176.7953      37783.151      6724.9433      48.731617      2.3577398     -150106.82     -147321.63    
      8100   1226.6553      28478.674      6724.9433      48.731617      2.3577398     -150065.28     -147162.08    
      8200   1205.097       47805.005      6724.9433      48.731617      2.3577398     -150006.32     -147154.14    
      8300   1219.037      -5608.5276      6724.9433      48.731617      2.3577398     -150082.98     -147197.81    
      8400   1182.5326     -30367.308      6724.9433      48.731617      2.3577398     -150075.48     -147276.71    
      8500   1198.7411      35759.786      6724.9433      48.731617      2.3577398     -150155.52     -147318.38    
      8600   1198.3373      44848.491      6724.9433      48.731617      2.3577398     -150144.17     -147307.99    
      8700   1178.0566     -17308.743      6724.9433      48.731617      2.3577398     -150073.24     -147285.06    
      8800   1195.9318      38405.225      6724.9433      48.731617      2.3577398     -150067.05     -147236.56    
      8900   1205.0457      1658.763       6724.9433      48.731617      2.3577398     -150057.27     -147205.21    
      9000   1185.1069      5391.0711      6724.9433      48.731617      2.3577398     -150074.45     -147269.58    
      9100   1173.1624      61440.711      6724.9433      48.731617      2.3577398     -150215.3      -147438.71    
      9200   1152.9322      53006.601      6724.9433      48.731617      2.3577398     -150192.38     -147463.67    
      9300   1183.0802      49052.783      6724.9433      48.731617      2.3577398     -150097.54     -147297.47    
      9400   1191.83        10114.048      6724.9433      48.731617      2.3577398     -150030.45     -147209.67    
      9500   1202.2535     -21398.584      6724.9433      48.731617      2.3577398     -150055.32     -147209.87    
      9600   1210.1369      32931.852      6724.9433      48.731617      2.3577398     -150089.58     -147225.47    
      9700   1228.4001     -582.12122      6724.9433      48.731617      2.3577398     -150120.72     -147213.38    
      9800   1191.156       29817.333      6724.9433      48.731617      2.3577398     -150039.69     -147220.5     
      9900   1192.4389      51064.639      6724.9433      48.731617      2.3577398     -150119.3      -147297.08    
     10000   1139.2645      24559.558      6724.9433      48.731617      2.3577398     -150087.68     -147391.31    
     10100   1177.4136     -11667.344      6724.9433      48.731617      2.3577398     -150192.19     -147405.53    
     10200   1236.7841      8484.8854      6724.9433      48.731617      2.3577398     -150133.45     -147206.28    
     10300   1263.5744      62794.777      6724.9433      48.731617      2.3577398     -150118.55     -147127.97    
     10400   1194.2662      44454.809      6724.9433      48.731617      2.3577398     -150048.39     -147221.84    
     10500   1155.8026     -4726.7665      6724.9433      48.731617      2.3577398     -150026.79     -147291.28    
     10600   1179.0508      48840.449      6724.9433      48.731617      2.3577398     -150142.29     -147351.75    
     10700   1151.22        45511.319      6724.9433      48.731617      2.3577398     -150190.39     -147465.73    
     10800   1202.0379      92895.386      6724.9433      48.731617      2.3577398     -150320.77     -147475.83    
     10900   1192.0722      37190.456      6724.9433      48.731617      2.3577398     -150141.83     -147320.48    
     11000   1222.5775     -59787.76       6724.9433      48.731617      2.3577398     -150113.02     -147219.47    
     11100   1187.9961     -18204.311      6724.9433      48.731617      2.3577398     -150070.69     -147258.99    
     11200   1198.1065     -8104.4094      6724.9433      48.731617      2.3577398     -150155.19     -147319.55    
     11300   1176.2825      86046.266      6724.9433      48.731617      2.3577398     -150319.35     -147535.37    
     11400   1133.9519      37888.773      6724.9433      48.731617      2.3577398     -150218.92     -147535.12    
     11500   1181.4597     -28740.482      6724.9433      48.731617      2.3577398     -150180.19     -147383.95    
     11600   1197.3109      19831.08       6724.9433      48.731617      2.3577398     -150116.46     -147282.71    
     11700   1226.6359      85351.024      6724.9433      48.731617      2.3577398     -150141.69     -147238.54    
     11800   1245.6719      39871.658      6724.9433      48.731617      2.3577398     -150181.61     -147233.4     
     11900   1183.225       33465.609      6724.9433      48.731617      2.3577398     -150016.79     -147216.37    
     12000   1236.0555     -12808.136      6724.9433      48.731617      2.3577398     -150075.02     -147149.57    
     12100   1228.5116      57208.547      6724.9433      48.731617      2.3577398     -150011.62     -147104.03    
     12200   1226.5068      14188.302      6724.9433      48.731617      2.3577398     -150090.38     -147187.53    
     12300   1156.9042      21655.607      6724.9433      48.731617      2.3577398     -150109.29     -147371.17    
     12400   1183.5967      35886.782      6724.9433      48.731617      2.3577398     -150202.54     -147401.24    
     12500   1215.1925      83546.479      6724.9433      48.731617      2.3577398     -150186.72     -147310.64    
     12600   1185.9509      33691.69       6724.9433      48.731617      2.3577398     -150058.11     -147251.25    
     12700   1187.6827     -3154.6327      6724.9433      48.731617      2.3577398     -150070.36     -147259.4     
     12800   1153.5912      94674.043      6724.9433      48.731617      2.3577398     -150004.47     -147274.2     
     12900   1191.7881      27456.838      6724.9433      48.731617      2.3577398     -150070.72     -147250.04    
     13000   1225.6646      57820.104      6724.9433      48.731617      2.3577398     -150046.3      -147145.44    
     13100   1260.0382      28365.323      6724.9433      48.731617      2.3577398     -149995.89     -147013.67    
     13200   1233.9208     -36692.355      6724.9433      48.731617      2.3577398     -150045.11     -147124.71    
     13300   1231.6555      15213.458      6724.9433      48.731617      2.3577398     -150199.15     -147284.11    
     13400   1186.8393      55228.584      6724.9433      48.731617      2.3577398     -150122.16     -147313.2     
     13500   1228.0979     -40751.847      6724.9433      48.731617      2.3577398     -150233.16     -147326.54    
     13600   1180.7064     -18274.708      6724.9433      48.731617      2.3577398     -150137.62     -147343.17    
     13700   1186.9367     -10537.286      6724.9433      48.731617      2.3577398     -150143.9      -147334.7     
     13800   1202.2692      116714.34      6724.9433      48.731617      2.3577398     -150098.2      -147252.72    
     13900   1205.7414      46236.655      6724.9433      48.731617      2.3577398     -149973.12     -147119.41    
     14000   1266.8038      36798.918      6724.9433      48.731617      2.3577398     -150010.84     -147012.61    
     14100   1215.2786      63794.384      6724.9433      48.731617      2.3577398     -149973.51     -147097.23    
     14200   1190.8359      7666.2683      6724.9433      48.731617      2.3577398     -150151.2      -147332.77    
     14300   1172.5927      12099.032      6724.9433      48.731617      2.3577398     -150083.46     -147308.21    
     14400   1229.1087     -18383.374      6724.9433      48.731617      2.3577398     -150129.39     -147220.38    
     14500   1207.3873      33554.089      6724.9433      48.731617      2.3577398     -150064.5      -147206.9     
     14600   1161.8952      27795.872      6724.9433      48.731617      2.3577398     -150068.52     -147318.59    
     14700   1181.5432      12208.471      6724.9433      48.731617      2.3577398     -150277.09     -147480.66    
     14800   1158.7283      9568.6759      6724.9433      48.731617      2.3577398     -150249.45     -147507.01    
     14900   1163.0587     -33463.909      6724.9433      48.731617      2.3577398     -150139.84     -147387.16    
     15000   1197.1848      41763.695      6724.9433      48.731617      2.3577398     -150142.65     -147309.2     
     15100   1217.4268      70942.943      6724.9433      48.731617      2.3577398     -150126.03     -147244.67    
     15200   1222.6422      49317.818      6724.9433      48.731617      2.3577398     -150097.49     -147203.79    
     15300   1250.3093      25408.081      6724.9433      48.731617      2.3577398     -150190.92     -147231.73    
     15400   1133.2112      19721.577      6724.9433      48.731617      2.3577398     -150083.66     -147401.62    
     15500   1163.4464      68023.543      6724.9433      48.731617      2.3577398     -150188.14     -147434.54    
     15600   1139.3004      9793.7072      6724.9433      48.731617      2.3577398     -150030.68     -147334.23    
     15700   1255.3777      47213.213      6724.9433      48.731617      2.3577398     -150110.24     -147139.06    
     15800   1260.2282     -7454.4156      6724.9433      48.731617      2.3577398     -150141.39     -147158.73    
     15900   1207.8425      21383.132      6724.9433      48.731617      2.3577398     -150167.25     -147308.58    
     16000   1176.906       19575.755      6724.9433      48.731617      2.3577398     -150121.02     -147335.57    
     16100   1202.8321     -4074.3525      6724.9433      48.731617      2.3577398     -150109.4      -147262.58    
     16200   1180.5366      50979.937      6724.9433      48.731617      2.3577398     -150048.69     -147254.64    
     16300   1198.0059      38417.375      6724.9433      48.731617      2.3577398     -150138.01     -147302.62    
     16400   1166.7022      81555.776      6724.9433      48.731617      2.3577398     -150209.95     -147448.65    
     16500   1165.9166      55363.917      6724.9433      48.731617      2.3577398     -150189.35     -147429.9     
     16600   1159.293       14953.958      6724.9433      48.731617      2.3577398     -150014.31     -147270.54    
     16700   1223.499      -25712.628      6724.9433      48.731617      2.3577398     -150058.12     -147162.38    
     16800   1246.9124      73709.446      6724.9433      48.731617      2.3577398     -150103.85     -147152.7     
     16900   1196.4108     -1819.2426      6724.9433      48.731617      2.3577398     -150111.32     -147279.7     
     17000   1163.4051      47143.402      6724.9433      48.731617      2.3577398     -150113.87     -147360.36    
     17100   1208.5037     -16848.121      6724.9433      48.731617      2.3577398     -150204.2      -147343.96    
     17200   1208.4582      19225.37       6724.9433      48.731617      2.3577398     -150139.36     -147279.23    
     17300   1182.8993     -29735.67       6724.9433      48.731617      2.3577398     -150066.5      -147266.85    
     17400   1144.1175      43677.892      6724.9433      48.731617      2.3577398     -150028.19     -147320.33    
     17500   1130.9752      74780.601      6724.9433      48.731617      2.3577398     -150057.79     -147381.04    
     17600   1173.9745     -6275.7094      6724.9433      48.731617      2.3577398     -150176.68     -147398.16    
     17700   1184.4115      54943.509      6724.9433      48.731617      2.3577398     -150073.02     -147269.8     
     17800   1208.7818      40577.016      6724.9433      48.731617      2.3577398     -149978.27     -147117.37    
     17900   1201.2038      39732.113      6724.9433      48.731617      2.3577398     -149983.26     -147140.3     
     18000   1241.6018      6297.7801      6724.9433      48.731617      2.3577398     -150167.95     -147229.38    
     18100   1166.3216     -15981.878      6724.9433      48.731617      2.3577398     -150162.24     -147401.83    
     18200   1213.8575      12769.11       6724.9433      48.731617      2.3577398     -150309.16     -147436.25    
     18300   1190.6776     -37341.863      6724.9433      48.731617      2.3577398     -150194.04     -147375.98    
     18400   1217.9457      6553.581       6724.9433      48.731617      2.3577398     -150154.53     -147271.94    
     18500   1229.8998      88169.835      6724.9433      48.731617      2.3577398     -150111.08     -147200.2     
     18600   1203.9272      63911.175      6724.9433      48.731617      2.3577398     -150067.96     -147218.55    
     18700   1162.5736      28974.881      6724.9433      48.731617      2.3577398     -150165.8      -147414.26    
     18800   1137.6347      37595.551      6724.9433      48.731617      2.3577398     -150163.51     -147470.99    
     18900   1210.0156      22750.226      6724.9433      48.731617      2.3577398     -150201.47     -147337.65    
     19000   1185.1186     -61.345125      6724.9433      48.731617      2.3577398     -150011.78     -147206.88    
     19100   1230.7099      51446.012      6724.9433      48.731617      2.3577398     -150113.38     -147200.58    
     19200   1209.4262      84291.691      6724.9433      48.731617      2.3577398     -150110.31     -147247.88    
     19300   1187.3429      61016.681      6724.9433      48.731617      2.3577398     -150131.04     -147320.88    
     19400   1188.7397      24334.319      6724.9433      48.731617      2.3577398     -150175.28     -147361.82    
     19500   1160.7293     -14010.972      6724.9433      48.731617      2.3577398     -150277.48     -147530.3     
     19600   1110.042      -25484.437      6724.9433      48.731617      2.3577398     -150214.02     -147586.81    
     19700   1201.4201      21491.172      6724.9433      48.731617      2.3577398     -150248.55     -147405.07    
     19800   1180.076       47402.482      6724.9433      48.731617      2.3577398     -150068.71     -147275.75    
     19900   1194.9908     -9300.1713      6724.9433      48.731617      2.3577398     -150059.77     -147231.51    
     20000   1219.2491      81631.6        6724.9433      48.731617      2.3577398     -150093.86     -147208.19    
     20100   1184.2968     -19357.826      6724.9433      48.731617      2.3577398     -150104.83     -147301.88    
     20200   1153.1348      67206.581      6724.9433      48.731617      2.3577398     -150199.23     -147470.03    
     20300   1174.6836     -2212.1329      6724.9433      48.731617      2.3577398     -150210.61     -147430.41    
     20400   1163.911      -5778.2642      6724.9433      48.731617      2.3577398     -150037.3      -147282.59    
     20500   1199.6718      23603.491      6724.9433      48.731617      2.3577398     -150029.81     -147190.47    
     20600   1206.8779      28529.962      6724.9433      48.731617      2.3577398     -150072.99     -147216.59    
     20700   1190.9463      7234.1097      6724.9433      48.731617      2.3577398     -150107.64     -147288.95    
     20800   1176.9553      21515.593      6724.9433      48.731617      2.3577398     -150112.38     -147326.81    
     20900   1246.1715      76901.646      6724.9433      48.731617      2.3577398     -150182.03     -147232.64    
     21000   1212.5172      39405.412      6724.9433      48.731617      2.3577398     -149929.52     -147059.78    
     21100   1223.1556      63860.6        6724.9433      48.731617      2.3577398     -149945.02     -147050.1     
     21200   1139.5797      29796.33       6724.9433      48.731617      2.3577398     -149912.67     -147215.55    
     21300   1189.3287     -22381.947      6724.9433      48.731617      2.3577398     -150087.64     -147272.78    
     21400   1174.2981      39518.056      6724.9433      48.731617      2.3577398     -150076.65     -147297.37    
     21500   1189.7367      59605.694      6724.9433      48.731617      2.3577398     -150215.18     -147399.35    
     21600   1140.3615     -6302.9174      6724.9433      48.731617      2.3577398     -150201.41     -147502.45    
     21700   1233.5085      36919.968      6724.9433      48.731617      2.3577398     -150253.16     -147333.74    
     21800   1243.2177      24549.199      6724.9433      48.731617      2.3577398     -150089.74     -147147.33    
     21900   1223.3528      17540          6724.9433      48.731617      2.3577398     -150078.48     -147183.09    
     22000   1223.798       11397.466      6724.9433      48.731617      2.3577398     -150153.98     -147257.54    
     22100   1166.158       71774.139      6724.9433      48.731617      2.3577398     -150169.93     -147409.91    
     22200   1135.0954      6240.3614      6724.9433      48.731617      2.3577398     -150167.77     -147481.27    
     22300   1162.9548     -2185.3107      6724.9433      48.731617      2.3577398     -150125.13     -147372.69    
     22400   1260.8457      63894.223      6724.9433      48.731617      2.3577398     -150138.66     -147154.53    
     22500   1202.4204      71261.791      6724.9433      48.731617      2.3577398     -149979.44     -147133.6     
     22600   1246.9922      89564.753      6724.9433      48.731617      2.3577398     -150164.04     -147212.71    
     22700   1237.9134      23924.915      6724.9433      48.731617      2.3577398     -150267.98     -147338.13    
     22800   1203.5718     -11952.624      6724.9433      48.731617      2.3577398     -150255.31     -147406.74    
     22900   1209.5471      11591.203      6724.9433      48.731617      2.3577398     -150249.75     -147387.03    
     23000   1221.9389      54204.865      6724.9433      48.731617      2.3577398     -150114.41     -147222.37    
     23100   1263.3677      49083.925      6724.9433      48.731617      2.3577398     -150085.8      -147095.71    
     23200   1221.4787      29432.112      6724.9433      48.731617      2.3577398     -150064.58     -147173.63    
     23300   1221.4989     -51952.225      6724.9433      48.731617      2.3577398     -150254.21     -147363.21    
     23400   1212.7182      18077.218      6724.9433      48.731617      2.3577398     -150265.12     -147394.9     
     23500   1137.5234     -23881.192      6724.9433      48.731617      2.3577398     -150105.88     -147413.63    
     23600   1165.6999      92518.679      6724.9433      48.731617      2.3577398     -150025.43     -147266.49    
     23700   1217.2128     -12234.706      6724.9433      48.731617      2.3577398     -150033.03     -147152.18    
     23800   1224.137       69677.371      6724.9433      48.731617      2.3577398     -150091.65     -147194.4     
     23900   1198.9912      15130.113      6724.9433      48.731617      2.3577398     -150140.5      -147302.77    
     24000   1206.6446     -28330.614      6724.9433      48.731617      2.3577398     -150191.8      -147335.96    
     24100   1205.8329     -27769.588      6724.9433      48.731617      2.3577398     -150198.33     -147344.41    
     24200   1215.0304      39958.605      6724.9433      48.731617      2.3577398     -150216.52     -147340.83    
     24300   1183.3874      17497.34       6724.9433      48.731617      2.3577398     -150120.58     -147319.78    
     24400   1243.9612      7397.5444      6724.9433      48.731617      2.3577398     -150101.36     -147157.2     
     24500   1232.1971      40440.857      6724.9433      48.731617      2.3577398     -149934.37     -147018.05    
     24600   1259.6357      8616.5059      6724.9433      48.731617      2.3577398     -150084.89     -147103.63    
     24700   1208.8074      73355.361      6724.9433      48.731617      2.3577398     -150068.46     -147207.5     
     24800   1175.5005      54387.302      6724.9433      48.731617      2.3577398     -150032.86     -147250.73    
     24900   1182.89        48761.809      6724.9433      48.731617      2.3577398     -150090.91     -147291.29    
     25000   1192.2016     -13665.575      6724.9433      48.731617      2.3577398     -150120.4      -147298.74    
     25100   1302.566       84237.269      6724.9433      48.731617      2.3577398     -150241.83     -147158.96    
     25200   1207.526      -6550.0904      6724.9433      48.731617      2.3577398     -149923.03     -147065.11    
     25300   1253.7344      19750.088      6724.9433      48.731617      2.3577398     -150064.6      -147097.3     
     25400   1210.7344      53045.753      6724.9433      48.731617      2.3577398     -150175.15     -147309.63    
     25500   1193.398       9279.7752      6724.9433      48.731617      2.3577398     -150175.61     -147351.11    
     25600   1167.3796     -23398.557      6724.9433      48.731617      2.3577398     -150147.91     -147385       
     25700   1228.2355      24159.223      6724.9433      48.731617      2.3577398     -150216.68     -147309.74    
     25800   1262.8225      72684.866      6724.9433      48.731617      2.3577398     -150110.08     -147121.28    
     25900   1258.439       68750.728      6724.9433      48.731617      2.3577398     -150068.93     -147090.5     
     26000   1237.6991      67426.119      6724.9433      48.731617      2.3577398     -150120.69     -147191.35    
     26100   1230.0835      48216.055      6724.9433      48.731617      2.3577398     -150163.58     -147252.26    
     26200   1169.5988      8335.014       6724.9433      48.731617      2.3577398     -150054.7      -147286.53    
     26300   1262.9025      73886.009      6724.9433      48.731617      2.3577398     -150246.02     -147257.03    
     26400   1142.8668      17686.728      6724.9433      48.731617      2.3577398     -150022.86     -147317.96    
     26500   1182.7011      5831.0874      6724.9433      48.731617      2.3577398     -150266.06     -147466.89    
     26600   1172.509       38067.173      6724.9433      48.731617      2.3577398     -150227.98     -147452.92    
     26700   1195.2417      2928.9363      6724.9433      48.731617      2.3577398     -150080.35     -147251.5     
     26800   1256.8616      26263.602      6724.9433      48.731617      2.3577398     -150155.2      -147180.51    
     26900   1178.0987      36467.808      6724.9433      48.731617      2.3577398     -150064.28     -147276       
     27000   1191.3907      48028.793      6724.9433      48.731617      2.3577398     -150167        -147347.26    
     27100   1195.4882      19287.884      6724.9433      48.731617      2.3577398     -150164.98     -147335.55    
     27200   1230.493       19473.629      6724.9433      48.731617      2.3577398     -150073.56     -147161.28    
     27300   1221.0963      6339.4727      6724.9433      48.731617      2.3577398     -149977.54     -147087.49    
     27400   1243.9859      15547.157      6724.9433      48.731617      2.3577398     -150100.77     -147156.55    
     27500   1222.8058      62074.871      6724.9433      48.731617      2.3577398     -150257.81     -147363.72    
     27600   1186.7423      38376.27       6724.9433      48.731617      2.3577398     -150238.94     -147430.2     
     27700   1242.9936      50183.164      6724.9433      48.731617      2.3577398     -150307.2      -147365.32    
     27800   1218.1337     -27668.401      6724.9433      48.731617      2.3577398     -150145.59     -147262.56    
     27900   1246.6333      21889.767      6724.9433      48.731617      2.3577398     -150083.02     -147132.53    
     28000   1193.736       40703.301      6724.9433      48.731617      2.3577398     -150038        -147212.71    
     28100   1159.343       62082.849      6724.9433      48.731617      2.3577398     -150209.86     -147465.97    
     28200   1218.2621      7531.3813      6724.9433      48.731617      2.3577398     -150335.66     -147452.32    
     28300   1201.0715     -3353.0316      6724.9433      48.731617      2.3577398     -150142.62     -147299.96    
     28400   1191.4266      33166.837      6724.9433      48.731617      2.3577398     -150007.65     -147187.82    
     28500   1197.0631      22510.307      6724.9433      48.731617      2.3577398     -150027.42     -147194.25    
     28600   1203.088       32272.878      6724.9433      48.731617      2.3577398     -150087.88     -147240.46    
     28700   1166.9006      85075.305      6724.9433      48.731617      2.3577398     -150199.17     -147437.39    
     28800   1185.9364      45542.899      6724.9433      48.731617      2.3577398     -150282.82     -147475.99    
     28900   1222.8804     -913.9245       6724.9433      48.731617      2.3577398     -150210.3      -147316.04    
     29000   1203.5621      4423.2702      6724.9433      48.731617      2.3577398     -150083.3      -147234.75    
     29100   1185.5076     -4995.1841      6724.9433      48.731617      2.3577398     -150050.04     -147244.22    
     29200   1239.5496      46809.512      6724.9433      48.731617      2.3577398     -150224.88     -147291.16    
     29300   1188.9007      89244.37       6724.9433      48.731617      2.3577398     -150255.93     -147442.08    
     29400   1148.8885      81031.666      6724.9433      48.731617      2.3577398     -150249.73     -147530.58    
     29500   1169.2426     -4793.2365      6724.9433      48.731617      2.3577398     -150077.26     -147309.94    
     29600   1199.8131     -5624.3177      6724.9433      48.731617      2.3577398     -150010.18     -147170.51    
     29700   1244.0223     -14383.812      6724.9433      48.731617      2.3577398     -150100.88     -147156.58    
     29800   1207.8395      48525.772      6724.9433      48.731617      2.3577398     -150132.79     -147274.12    
     29900   1182.4437      28793.049      6724.9433      48.731617      2.3577398     -150211.89     -147413.33    
     30000   1181.204       51508.268      6724.9433      48.731617      2.3577398     -150224.46     -147428.83    
     30100   1144.0735     -8499.197       6724.9433      48.731617      2.3577398     -150094.48     -147386.73    
     30200   1242.8357      40487.776      6724.9433      48.731617      2.3577398     -150089.74     -147148.24    
     30300   1264.3378      49908.329      6724.9433      48.731617      2.3577398     -150053.58     -147061.19    
     30400   1211.208      -6427.3945      6724.9433      48.731617      2.3577398     -150025.59     -147158.95    
     30500   1160.3203      32064.907      6724.9433      48.731617      2.3577398     -150020.98     -147274.78    
     30600   1135.2304      27713.305      6724.9433      48.731617      2.3577398     -150088.5      -147401.68    
     30700   1171.3637     -21748.501      6724.9433      48.731617      2.3577398     -150226.91     -147454.57    
     30800   1167.72       -12309.584      6724.9433      48.731617      2.3577398     -150173.77     -147410.05    
     30900   1176.3286      30173.347      6724.9433      48.731617      2.3577398     -150153.06     -147368.97    
     31000   1218.2727      25909.233      6724.9433      48.731617      2.3577398     -150226.74     -147343.38    
     31100   1223.3759      73261.363      6724.9433      48.731617      2.3577398     -150166.87     -147271.43    
     31200   1238.6159      45439.087      6724.9433      48.731617      2.3577398     -150058.82     -147127.31    
     31300   1193.8298     -21157.689      6724.9433      48.731617      2.3577398     -149992.16     -147166.65    
     31400   1176.2237      1111.4123      6724.9433      48.731617      2.3577398     -150228.57     -147444.73    
     31500   1204.3868      25587.238      6724.9433      48.731617      2.3577398     -150319.36     -147468.86    
     31600   1199.3636     -39508.989      6724.9433      48.731617      2.3577398     -150194.83     -147356.22    
     31700   1191.5045     -8117.5785      6724.9433      48.731617      2.3577398     -150043.49     -147223.48    
     31800   1190.4617      70805.956      6724.9433      48.731617      2.3577398     -150033.31     -147215.77    
     31900   1213.0371      29021.796      6724.9433      48.731617      2.3577398     -150134.24     -147263.27    
     32000   1117.7429      23781.733      6724.9433      48.731617      2.3577398     -150129.46     -147484.03    
     32100   1151.3041     -39970.614      6724.9433      48.731617      2.3577398     -150215.71     -147490.84    
     32200   1212.0643      59307.977      6724.9433      48.731617      2.3577398     -150232.37     -147363.7     
     32300   1161.1567      1149.0845      6724.9433      48.731617      2.3577398     -150032.39     -147284.21    
     32400   1222.7892      72167.635      6724.9433      48.731617      2.3577398     -150131.61     -147237.56    
     32500   1237.2546      16251.201      6724.9433      48.731617      2.3577398     -150143.36     -147215.07    
     32600   1228.1682     -50871.637      6724.9433      48.731617      2.3577398     -150190.41     -147283.63    
     32700   1166.952       2955.7196      6724.9433      48.731617      2.3577398     -150242.54     -147480.64    
     32800   1190.8691      12446.949      6724.9433      48.731617      2.3577398     -150295.81     -147477.31    
     32900   1233.557       103632.97      6724.9433      48.731617      2.3577398     -150286.56     -147367.02    
     33000   1232.5475     -33147.507      6724.9433      48.731617      2.3577398     -150114.6      -147197.45    
     33100   1239.6267      76071.249      6724.9433      48.731617      2.3577398     -149977.47     -147043.57    
     33200   1217.3579      17817.468      6724.9433      48.731617      2.3577398     -149942.84     -147061.65    
     33300   1207.3933      43796.585      6724.9433      48.731617      2.3577398     -149986.32     -147128.71    
     33400   1184.7194      22977.261      6724.9433      48.731617      2.3577398     -150062.57     -147258.62    
     33500   1219.5983      15167.293      6724.9433      48.731617      2.3577398     -150263.74     -147377.24    
     33600   1186.7238      28460.783      6724.9433      48.731617      2.3577398     -150227.89     -147419.2     
     33700   1230.4144      62001.702      6724.9433      48.731617      2.3577398     -150226.84     -147314.74    
     33800   1236.4111      33114.577      6724.9433      48.731617      2.3577398     -150129.62     -147203.33    
     33900   1258.3228      5346.3797      6724.9433      48.731617      2.3577398     -150114.54     -147136.39    
     34000   1219.4079      24790.865      6724.9433      48.731617      2.3577398     -149955.63     -147069.58    
     34100   1250.0482      42133.859      6724.9433      48.731617      2.3577398     -150138.82     -147180.25    
     34200   1191.6997      13986.024      6724.9433      48.731617      2.3577398     -150160.2      -147339.72    
     34300   1203.6573     -8441.2594      6724.9433      48.731617      2.3577398     -150221.39     -147372.62    
     34400   1211.1633      26250.743      6724.9433      48.731617      2.3577398     -150208.26     -147341.72    
     34500   1249.7998      59359.927      6724.9433      48.731617      2.3577398     -150097.32     -147139.34    
     34600   1253.6028     -41955.566      6724.9433      48.731617      2.3577398     -150064.17     -147097.19    
     34700   1242.1159      54179.909      6724.9433      48.731617      2.3577398     -150153.85     -147214.06    
     34800   1184.8506      43418.915      6724.9433      48.731617      2.3577398     -150074.76     -147270.5     
     34900   1206.1769      57007.948      6724.9433      48.731617      2.3577398     -150102.16     -147247.43    
     35000   1223.7556      26950.798      6724.9433      48.731617      2.3577398     -150144.78     -147248.44    
     35100   1204.5102      21915.237      6724.9433      48.731617      2.3577398     -150194.85     -147344.06    
     35200   1163.9647      45952.638      6724.9433      48.731617      2.3577398     -150285.79     -147530.96    
     35300   1185.3889     -11858.311      6724.9433      48.731617      2.3577398     -150329.55     -147524.01    
     35400   1132.4509     -12400.932      6724.9433      48.731617      2.3577398     -150065.24     -147385       
     35500   1217.7203      36920.005      6724.9433      48.731617      2.3577398     -150194.41     -147312.36    
     35600   1192.4806      20001.585      6724.9433      48.731617      2.3577398     -150111.78     -147289.46    
     35700   1183.2068      22627.499      6724.9433      48.731617      2.3577398     -150072.01     -147271.64    
     35800   1253.6027      38465.463      6724.9433      48.731617      2.3577398     -150164.16     -147197.18    
     35900   1186.7465      21529.871      6724.9433      48.731617      2.3577398     -149880.4      -147071.65    
     36000   1216.913       41520.361      6724.9433      48.731617      2.3577398     -149935.55     -147055.4     
     36100   1246.0378     -16650.035      6724.9433      48.731617      2.3577398     -150198.54     -147249.46    
     36200   1150.4928     -17491.094      6724.9433      48.731617      2.3577398     -150085.74     -147362.8     
     36300   1232.4901      23881.49       6724.9433      48.731617      2.3577398     -150270.68     -147353.66    
     36400   1217.0283      26210.727      6724.9433      48.731617      2.3577398     -150127.28     -147246.86    
     36500   1295.2637      49347.102      6724.9433      48.731617      2.3577398     -150166.73     -147101.15    
     36600   1256.0692     -37184.477      6724.9433      48.731617      2.3577398     -150176.83     -147204.01    
     36700   1194.6626     -27129.537      6724.9433      48.731617      2.3577398     -150232.77     -147405.29    
     36800   1182.7227      66560.866      6724.9433      48.731617      2.3577398     -150217.47     -147418.25    
     36900   1158.72        38266.384      6724.9433      48.731617      2.3577398     -150037.51     -147295.09    
     37000   1230.2525      45654.941      6724.9433      48.731617      2.3577398     -150066.52     -147154.8     
     37100   1221.4154      36413.018      6724.9433      48.731617      2.3577398     -150055.22     -147164.42    
     37200   1209.2483     -13720.509      6724.9433      48.731617      2.3577398     -150103.26     -147241.26    
     37300   1220.4418      20546.291      6724.9433      48.731617      2.3577398     -150215.67     -147327.17    
     37400   1194.8412      14644.817      6724.9433      48.731617      2.3577398     -150175        -147347.09    
     37500   1231.4221      20547.998      6724.9433      48.731617      2.3577398     -150266.27     -147351.78    
     37600   1198.8599      22350.269      6724.9433      48.731617      2.3577398     -150166.92     -147329.5     
     37700   1250.8119     -672.0519       6724.9433      48.731617      2.3577398     -150144.48     -147184.1     
     37800   1226.0669     -7282.4153      6724.9433      48.731617      2.3577398     -149968.72     -147066.91    
     37900   1221.4327      23505.729      6724.9433      48.731617      2.3577398     -149946.2      -147055.36    
     38000   1203.8941      11858.805      6724.9433      48.731617      2.3577398     -150131.05     -147281.72    
     38100   1207.2038      41557.313      6724.9433      48.731617      2.3577398     -150243.53     -147386.36    
     38200   1218.5666      1938.7107      6724.9433      48.731617      2.3577398     -150239.17     -147355.11    
     38300   1164.2475      63021.258      6724.9433      48.731617      2.3577398     -150083.32     -147327.82    
     38400   1213.8219      45836.344      6724.9433      48.731617      2.3577398     -150073.86     -147201.03    
     38500   1252.9315      35135.039      6724.9433      48.731617      2.3577398     -150050.14     -147084.75    
     38600   1249.1782     -9500.8661      6724.9433      48.731617      2.3577398     -150152.99     -147196.48    
     38700   1214.8418      15746.197      6724.9433      48.731617      2.3577398     -150246.59     -147371.34    
     38800   1179.1591     -26316.639      6724.9433      48.731617      2.3577398     -150170.25     -147379.46    
     38900   1208.7904      85614.008      6724.9433      48.731617      2.3577398     -150177.19     -147316.27    
     39000   1255.3223      5075.3959      6724.9433      48.731617      2.3577398     -150192.96     -147221.91    
     39100   1236.8233      54916.897      6724.9433      48.731617      2.3577398     -150127.42     -147200.15    
     39200   1154.0218      970.75386      6724.9433      48.731617      2.3577398     -150027.84     -147296.54    
     39300   1193.4993      41738.932      6724.9433      48.731617      2.3577398     -150220.56     -147395.83    
     39400   1153.0004      55565.905      6724.9433      48.731617      2.3577398     -150207.62     -147478.74    
     39500   1218.5242      55538.338      6724.9433      48.731617      2.3577398     -150256.44     -147372.49    
     39600   1217.4826      38250.873      6724.9433      48.731617      2.3577398     -150058        -147176.51    
     39700   1195.3017      28810.97       6724.9433      48.731617      2.3577398     -150048.4      -147219.4     
     39800   1217.4161      17624.623      6724.9433      48.731617      2.3577398     -150214.56     -147333.22    
     39900   1229.5455     -12955.819      6724.9433      48.731617      2.3577398     -150314.79     -147404.74    
     40000   1168.7868      28618.325      6724.9433      48.731617      2.3577398     -150149.25     -147383.01    
     40100   1210.9077      19732.658      6724.9433      48.731617      2.3577398     -149973.86     -147107.93    
     40200   1248.679       59478.679      6724.9433      48.731617      2.3577398     -150070.55     -147115.22    
     40300   1202.5533      28484.387      6724.9433      48.731617      2.3577398     -150107.8      -147261.64    
     40400   1175.5095      22631.953      6724.9433      48.731617      2.3577398     -150147.54     -147365.39    
     40500   1205.7063      24691.272      6724.9433      48.731617      2.3577398     -150230.19     -147376.57    
     40600   1184.2385      25208.771      6724.9433      48.731617      2.3577398     -150052.82     -147250.01    
     40700   1235.1048      53533.015      6724.9433      48.731617      2.3577398     -150001.46     -147078.26    
     40800   1267.6344      47643.667      6724.9433      48.731617      2.3577398     -150149.41     -147149.22    
     40900   1178.561       15350.525      6724.9433      48.731617      2.3577398     -150080.14     -147290.76    
     41000   1210.0569     -7465.3114      6724.9433      48.731617      2.3577398     -150197.48     -147333.56    
     41100   1231.7913      22735.825      6724.9433      48.731617      2.3577398     -150233.31     -147317.95    
     41200   1205.3367      61108.786      6724.9433      48.731617      2.3577398     -150120.89     -147268.14    
     41300   1287.8481     -6171.5064      6724.9433      48.731617      2.3577398     -150143.34     -147095.31    
     41400   1283.2485      26424.303      6724.9433      48.731617      2.3577398     -150016.53     -146979.38    
     41500   1194.087       73168.461      6724.9433      48.731617      2.3577398     -149968.34     -147142.22    
     41600   1239.4799      81648.957      6724.9433      48.731617      2.3577398     -150191.11     -147257.55    
     41700   1218.6387     -32137.407      6724.9433      48.731617      2.3577398     -150227.92     -147343.69    
     41800   1164.6298     -33465.332      6724.9433      48.731617      2.3577398     -150167.35     -147410.95    
     41900   1143.7282      43588.876      6724.9433      48.731617      2.3577398     -150089.93     -147382.99    
     42000   1243.2173      25664.802      6724.9433      48.731617      2.3577398     -150102.99     -147160.58    
     42100   1211.3217      83931.245      6724.9433      48.731617      2.3577398     -149986.95     -147120.04    
     42200   1167.9457      25323.061      6724.9433      48.731617      2.3577398     -149958.34     -147194.09    
     42300   1192.3814      8359.1366      6724.9433      48.731617      2.3577398     -150174.2      -147352.11    
     42400   1184.1544      37145.42       6724.9433      48.731617      2.3577398     -150293.62     -147491       
     42500   1157.9893     -13887.826      6724.9433      48.731617      2.3577398     -150210.76     -147470.07    
     42600   1190.623       36145.673      6724.9433      48.731617      2.3577398     -150205.45     -147387.53    
     42700   1199.9153      51373.27       6724.9433      48.731617      2.3577398     -150163.7      -147323.79    
     42800   1231.652       41894.75       6724.9433      48.731617      2.3577398     -150110.45     -147195.42    
     42900   1240.1402      82454.688      6724.9433      48.731617      2.3577398     -149927.83     -146992.72    
     43000   1240.6041     -27337.697      6724.9433      48.731617      2.3577398     -150003.31     -147067.09    
     43100   1243.8155      19959.446      6724.9433      48.731617      2.3577398     -150139        -147195.18    
     43200   1208.7996      66784.578      6724.9433      48.731617      2.3577398     -150160.63     -147299.69    
     43300   1178.0546      3753.795       6724.9433      48.731617      2.3577398     -150144.56     -147356.38    
     43400   1169.7963      28752.389      6724.9433      48.731617      2.3577398     -150116.87     -147348.24    
     43500   1237.0822     -7655.3708      6724.9433      48.731617      2.3577398     -150164.78     -147236.9     
     43600   1231.776       26705.352      6724.9433      48.731617      2.3577398     -149995.8      -147080.48    
     43700   1243.2008      26403.78       6724.9433      48.731617      2.3577398     -150035.53     -147093.17    
     43800   1173.7528      51469.41       6724.9433      48.731617      2.3577398     -150067.51     -147289.52    
     43900   1188.7167      15857.683      6724.9433      48.731617      2.3577398     -150152.98     -147339.57    
     44000   1197.739       95557.857      6724.9433      48.731617      2.3577398     -150186.2      -147351.43    
     44100   1208.6905     -5768.4984      6724.9433      48.731617      2.3577398     -150174.38     -147313.7     
     44200   1149.6447      19599.673      6724.9433      48.731617      2.3577398     -150079.12     -147358.19    
     44300   1164.4697      33345.043      6724.9433      48.731617      2.3577398     -150161.4      -147405.37    
     44400   1226.9195      87726.559      6724.9433      48.731617      2.3577398     -150196.92     -147293.09    
     44500   1244.8416      11439.644      6724.9433      48.731617      2.3577398     -150128.76     -147182.52    
     44600   1228.1839     -8628.4718      6724.9433      48.731617      2.3577398     -150117.97     -147211.15    
     44700   1181.0182      57339.995      6724.9433      48.731617      2.3577398     -150213.54     -147418.35    
     44800   1164.966       99928.432      6724.9433      48.731617      2.3577398     -150222.71     -147465.51    
     44900   1209.3328      117256.88      6724.9433      48.731617      2.3577398     -150207.08     -147344.87    
     45000   1234.098       56997.968      6724.9433      48.731617      2.3577398     -150200.45     -147279.63    
     45100   1162.2478      39316.902      6724.9433      48.731617      2.3577398     -149995.68     -147244.92    
     45200   1223.5837      6424.9716      6724.9433      48.731617      2.3577398     -150097.47     -147201.54    
     45300   1210.9872      3988.4804      6724.9433      48.731617      2.3577398     -150058.81     -147192.69    
     45400   1194.3755      80102.084      6724.9433      48.731617      2.3577398     -150126.61     -147299.81    
     45500   1163.9899      3415.753       6724.9433      48.731617      2.3577398     -150173.11     -147418.23    
     45600   1195.7116      73026.074      6724.9433      48.731617      2.3577398     -150238.51     -147408.54    
     45700   1185.6222      107354.79      6724.9433      48.731617      2.3577398     -150081.01     -147274.93    
     45800   1213.4035      25328.157      6724.9433      48.731617      2.3577398     -149964.96     -147093.13    
     45900   1195.7499      60165.735      6724.9433      48.731617      2.3577398     -149926.61     -147096.55    
     46000   1212.3107     -19726.099      6724.9433      48.731617      2.3577398     -150045.72     -147176.47    
     46100   1217.349       39062.418      6724.9433      48.731617      2.3577398     -150131.34     -147250.16    
     46200   1180.2451      62439.017      6724.9433      48.731617      2.3577398     -150074.17     -147280.81    
     46300   1120.3914      25749.865      6724.9433      48.731617      2.3577398     -149975.19     -147323.48    
     46400   1170.026       42048.147      6724.9433      48.731617      2.3577398     -150106.2      -147337.03    
     46500   1164.7309      33125.13       6724.9433      48.731617      2.3577398     -150056.58     -147299.94    
     46600   1181.458       3209.3831      6724.9433      48.731617      2.3577398     -150073.95     -147277.72    
     46700   1183.0518      82181.694      6724.9433      48.731617      2.3577398     -150074.58     -147274.57    
     46800   1170.3344      33988.824      6724.9433      48.731617      2.3577398     -150022.43     -147252.52    
     46900   1207.0527      7170.8483      6724.9433      48.731617      2.3577398     -150134.02     -147277.21    
     47000   1171.1915      28322.056      6724.9433      48.731617      2.3577398     -150189.25     -147417.32    
     47100   1199.4242      25891.876      6724.9433      48.731617      2.3577398     -150343.1      -147504.35    
     47200   1161.8651      30247.714      6724.9433      48.731617      2.3577398     -150137.12     -147387.27    
     47300   1184.2889      44640.909      6724.9433      48.731617      2.3577398     -150004.79     -147201.86    
     47400   1267.0083      79173.864      6724.9433      48.731617      2.3577398     -150147.34     -147148.63    
     47500   1231.8667      43720.002      6724.9433      48.731617      2.3577398     -150105.32     -147189.79    
     47600   1232.4707     -11893.78       6724.9433      48.731617      2.3577398     -150239.62     -147322.66    
     47700   1189.6562      25882.66       6724.9433      48.731617      2.3577398     -150238.74     -147423.1     
     47800   1160.771       92226.897      6724.9433      48.731617      2.3577398     -150324.05     -147576.78    
     47900   1147.8334      52404.443      6724.9433      48.731617      2.3577398     -150383.07     -147666.42    
     48000   1130.1017      27077.959      6724.9433      48.731617      2.3577398     -150106.8      -147432.12    
     48100   1223.7316      34002.07       6724.9433      48.731617      2.3577398     -150202.82     -147306.53    
     48200   1171.5027     -35294.476      6724.9433      48.731617      2.3577398     -150046.35     -147273.68    
     48300   1175.157       46570.69       6724.9433      48.731617      2.3577398     -150001.89     -147220.57    
     48400   1161.5046      22801.353      6724.9433      48.731617      2.3577398     -150011.15     -147262.15    
     48500   1151.5453      69205.7        6724.9433      48.731617      2.3577398     -150078.02     -147352.59    
     48600   1159.2393      45406.867      6724.9433      48.731617      2.3577398     -150137.69     -147394.04    
     48700   1191.901       9691.5232      6724.9433      48.731617      2.3577398     -150104.78     -147283.83    
     48800   1227.0913      78724.78       6724.9433      48.731617      2.3577398     -150039.39     -147135.16    
     48900   1214.3966      28318.858      6724.9433      48.731617      2.3577398     -149991.01     -147116.82    
     49000   1193.0229      127077.03      6724.9433      48.731617      2.3577398     -150130.04     -147306.44    
     49100   1174.083       36285.727      6724.9433      48.731617      2.3577398     -150209.22     -147430.45    
     49200   1219.0638      29397.561      6724.9433      48.731617      2.3577398     -150242.26     -147357.02    
     49300   1234.6875     -67139.111      6724.9433      48.731617      2.3577398     -150200.7      -147278.49    
     49400   1180.3228      51107.207      6724.9433      48.731617      2.3577398     -150075.66     -147282.12    
     49500   1229.3529      62987.449      6724.9433      48.731617      2.3577398     -150084.17     -147174.58    
     49600   1254.5945      101579.96      6724.9433      48.731617      2.3577398     -150011.01     -147041.69    
     49700   1186.9184      55755.169      6724.9433      48.731617      2.3577398     -149926.17     -147117.02    
     49800   1203.66        31545.437      6724.9433      48.731617      2.3577398     -150155.84     -147307.06    
     49900   1197.451       26557.496      6724.9433      48.731617      2.3577398     -150212.34     -147378.26    
     50000   1215.9126      4378.477       6724.9433      48.731617      2.3577398     -150251.15     -147373.37    
     50100   1233.2018      6373.0586      6724.9433      48.731617      2.3577398     -150214.15     -147295.45    
     50200   1263.111       14100.512      6724.9433      48.731617      2.3577398     -150121.67     -147132.19    
     50300   1273.6888      103227.81      6724.9433      48.731617      2.3577398     -150042.48     -147027.96    
     50400   1204.4217      77708.388      6724.9433      48.731617      2.3577398     -150068.42     -147217.84    
     50500   1141.5506      3459.4684      6724.9433      48.731617      2.3577398     -150058.69     -147356.91    
     50600   1151.558       43199.815      6724.9433      48.731617      2.3577398     -150057.35     -147331.89    
     50700   1203.9766     -37150.983      6724.9433      48.731617      2.3577398     -150156.31     -147306.78    
     50800   1161.6471      15164.879      6724.9433      48.731617      2.3577398     -150116.46     -147367.12    
     50900   1149.8686      57191.877      6724.9433      48.731617      2.3577398     -150176.91     -147455.44    
     51000   1170.0494      66698.41       6724.9433      48.731617      2.3577398     -150205.57     -147436.34    
     51100   1162.1623      20908.557      6724.9433      48.731617      2.3577398     -149963.66     -147213.1     
     51200   1187.7605      44228.414      6724.9433      48.731617      2.3577398     -149990.97     -147179.83    
     51300   1194.6821      4681.3293      6724.9433      48.731617      2.3577398     -150077.61     -147250.08    
     51400   1186.0893      35182.29       6724.9433      48.731617      2.3577398     -150154.57     -147347.38    
     51500   1131.7474      69949.087      6724.9433      48.731617      2.3577398     -150174.45     -147495.87    
     51600   1147.7866      24599.713      6724.9433      48.731617      2.3577398     -150263.4      -147546.87    
     51700   1190.6183      54310.878      6724.9433      48.731617      2.3577398     -150121.99     -147304.08    
     51800   1232.627       52790.845      6724.9433      48.731617      2.3577398     -150170.07     -147252.74    
     51900   1181.9062      32501.988      6724.9433      48.731617      2.3577398     -150102.75     -147305.46    
     52000   1200.2126      25016.63       6724.9433      48.731617      2.3577398     -150161.81     -147321.2     
     52100   1217.6879      50200.332      6724.9433      48.731617      2.3577398     -150159.57     -147277.6     
     52200   1229.8096      46214.05       6724.9433      48.731617      2.3577398     -150054.22     -147143.55    
     52300   1228.5997      56950.074      6724.9433      48.731617      2.3577398     -149975.26     -147067.46    
     52400   1270.8018      7003.5069      6724.9433      48.731617      2.3577398     -150172.93     -147165.24    
     52500   1193.5172      5342.5407      6724.9433      48.731617      2.3577398     -150185.5      -147360.72    
     52600   1167.2592      7276.909       6724.9433      48.731617      2.3577398     -150137.73     -147375.11    
     52700   1174.3907      43710.235      6724.9433      48.731617      2.3577398     -150117.45     -147337.95    
     52800   1229.0541      92009.751      6724.9433      48.731617      2.3577398     -150084.51     -147175.63    
     52900   1237.2174      95550.454      6724.9433      48.731617      2.3577398     -150033.28     -147105.08    
     53000   1221.8493      54977.092      6724.9433      48.731617      2.3577398     -150070.32     -147178.49    
     53100   1163.6158      16553.162      6724.9433      48.731617      2.3577398     -150128.38     -147374.38    
     53200   1161.7038     -264.75994      6724.9433      48.731617      2.3577398     -150143.76     -147394.29    
     53300   1214.7294      239.53336      6724.9433      48.731617      2.3577398     -150183.04     -147308.06    
     53400   1273.3132      40728.251      6724.9433      48.731617      2.3577398     -150248.11     -147234.48    
     53500   1206.0925      67604.316      6724.9433      48.731617      2.3577398     -150079.7      -147225.16    
     53600   1244.4668      38408.409      6724.9433      48.731617      2.3577398     -150181.77     -147236.41    
     53700   1182.0199      47637.719      6724.9433      48.731617      2.3577398     -150197.77     -147400.21    
     53800   1137.4987      32051.066      6724.9433      48.731617      2.3577398     -150197.91     -147505.72    
     53900   1185.8896      9348.1483      6724.9433      48.731617      2.3577398     -150255.18     -147448.46    
     54000   1198.7178      11016.317      6724.9433      48.731617      2.3577398     -150086.11     -147249.03    
     54100   1206.3299      32553.318      6724.9433      48.731617      2.3577398     -150045.8      -147190.7     
     54200   1182.9078      104321.44      6724.9433      48.731617      2.3577398     -150024.27     -147224.61    
     54300   1231.4195      56841.24       6724.9433      48.731617      2.3577398     -150199.32     -147284.84    
     54400   1190.0959      5172.0164      6724.9433      48.731617      2.3577398     -150256.45     -147439.77    
     54500   1153.5478      18732.052      6724.9433      48.731617      2.3577398     -150258.62     -147528.45    
     54600   1179.1507      36202.106      6724.9433      48.731617      2.3577398     -150212.5      -147421.73    
     54700   1201.0808      70979.343      6724.9433      48.731617      2.3577398     -150025.58     -147182.91    
     54800   1240.9203      65435.134      6724.9433      48.731617      2.3577398     -150079.41     -147142.45    
     54900   1299.73        14574.029      6724.9433      48.731617      2.3577398     -150222.95     -147146.79    
     55000   1225.7996      15171.757      6724.9433      48.731617      2.3577398     -150208.28     -147307.1     
     55100   1218.4224      27116.474      6724.9433      48.731617      2.3577398     -150268.8      -147385.08    
     55200   1184.7536      34636.312      6724.9433      48.731617      2.3577398     -150193.27     -147389.24    
     55300   1250.5628      38528.539      6724.9433      48.731617      2.3577398     -150268.71     -147308.92    
     55400   1220.5273      44613.716      6724.9433      48.731617      2.3577398     -149992.74     -147104.04    
     55500   1276.4355     -2587.9657      6724.9433      48.731617      2.3577398     -150087.11     -147066.08    
     55600   1163.1091     -5478.1723      6724.9433      48.731617      2.3577398     -150000.31     -147247.51    
     55700   1162.7644      118114.79      6724.9433      48.731617      2.3577398     -150085.95     -147333.96    
     55800   1160.715       54385.315      6724.9433      48.731617      2.3577398     -150066.2      -147319.06    
     55900   1149.3465      37354.767      6724.9433      48.731617      2.3577398     -150025.47     -147305.24    
     56000   1258.9422     -17516.937      6724.9433      48.731617      2.3577398     -150175.71     -147196.09    
     56100   1273.7882      28130.795      6724.9433      48.731617      2.3577398     -150078.86     -147064.1     
     56200   1190.4207      22780.037      6724.9433      48.731617      2.3577398     -150019.3      -147201.86    
     56300   1216.394      -17211.626      6724.9433      48.731617      2.3577398     -150208.35     -147329.44    
     56400   1175.5364      56263.532      6724.9433      48.731617      2.3577398     -150101.55     -147319.33    
     56500   1186.9738     -48.54745       6724.9433      48.731617      2.3577398     -150069.3      -147260.02    
     56600   1208.3159      76509.179      6724.9433      48.731617      2.3577398     -150021.95     -147162.15    
     56700   1263.2639     -32783.416      6724.9433      48.731617      2.3577398     -150006.03     -147016.18    
     56800   1237.4292      4481.0486      6724.9433      48.731617      2.3577398     -150022.34     -147093.63    
     56900   1127.6021      57724.544      6724.9433      48.731617      2.3577398     -149976.68     -147307.91    
     57000   1187.9007      55098.159      6724.9433      48.731617      2.3577398     -150122.57     -147311.09    
     57100   1197.7447     -16955.077      6724.9433      48.731617      2.3577398     -150119.39     -147284.61    
     57200   1206.1751      10872.757      6724.9433      48.731617      2.3577398     -150050.92     -147196.18    
     57300   1200.8727     -4200.688       6724.9433      48.731617      2.3577398     -149984.11     -147141.93    
     57400   1209.6017      33915.657      6724.9433      48.731617      2.3577398     -150088.29     -147225.44    
     57500   1193.5019      53665.718      6724.9433      48.731617      2.3577398     -150218.93     -147394.19    
     57600   1150.1428      32128.232      6724.9433      48.731617      2.3577398     -150116.34     -147394.22    
     57700   1247.5055      25665.856      6724.9433      48.731617      2.3577398     -150186.37     -147233.82    
     57800   1171.8561     -13443.479      6724.9433      48.731617      2.3577398     -149973.9      -147200.4     
     57900   1247.5377      18151.771      6724.9433      48.731617      2.3577398     -150165.02     -147212.4     
     58000   1207.6724      35952.196      6724.9433      48.731617      2.3577398     -150164.28     -147306.01    
     58100   1176.5471      21501.036      6724.9433      48.731617      2.3577398     -150134.9      -147350.29    
     58200   1146.3989      47838.045      6724.9433      48.731617      2.3577398     -150135.48     -147422.23    
     58300   1170.076       81807.089      6724.9433      48.731617      2.3577398     -150267.74     -147498.44    
     58400   1130.4085     -32725.9        6724.9433      48.731617      2.3577398     -150095.84     -147420.43    
     58500   1245.2638      58857.331      6724.9433      48.731617      2.3577398     -150176.61     -147229.36    
     58600   1245.7859      49299.375      6724.9433      48.731617      2.3577398     -150154.99     -147206.51    
     58700   1181.7586      56935.887      6724.9433      48.731617      2.3577398     -150070.6      -147273.66    
     58800   1142.2119      51865.153      6724.9433      48.731617      2.3577398     -150124.5      -147421.16    
     58900   1153.1807      49203.754      6724.9433      48.731617      2.3577398     -150243.52     -147514.22    
     59000   1155.79        30340.778      6724.9433      48.731617      2.3577398     -150167.79     -147432.31    
     59100   1163.6937      29659.322      6724.9433      48.731617      2.3577398     -150093.94     -147339.75    
     59200   1219.3868      33268.288      6724.9433      48.731617      2.3577398     -150180.31     -147294.31    
     59300   1148.4917      21692.113      6724.9433      48.731617      2.3577398     -150064.14     -147345.94    
     59400   1179.9867      29334.976      6724.9433      48.731617      2.3577398     -150221.35     -147428.6     
     59500   1123.4921      15609.607      6724.9433      48.731617      2.3577398     -150109.4      -147450.36    
     59600   1257.1592      46566.469      6724.9433      48.731617      2.3577398     -150257.75     -147282.36    
     59700   1229.2744     -9242.7192      6724.9433      48.731617      2.3577398     -150108        -147198.6     
     59800   1257.0789      37855.85       6724.9433      48.731617      2.3577398     -150125.15     -147149.95    
     59900   1211.5365     -15404.475      6724.9433      48.731617      2.3577398     -150146.82     -147279.4     
     60000   1097.3177      56493.955      6724.9433      48.731617      2.3577398     -150044.84     -147447.75    
     60100   1204.7848      65643.798      6724.9433      48.731617      2.3577398     -150250.7      -147399.26    
     60200   1204.2857     -15184.374      6724.9433      48.731617      2.3577398     -150154.54     -147304.28    
     60300   1192.5194      50589.286      6724.9433      48.731617      2.3577398     -150097.39     -147274.98    
     60400   1204.9456     -13349.289      6724.9433      48.731617      2.3577398     -150141.87     -147290.05    
     60500   1224.9177      60381.031      6724.9433      48.731617      2.3577398     -150219.75     -147320.66    
     60600   1214.7708      72451.746      6724.9433      48.731617      2.3577398     -150198.02     -147322.95    
     60700   1198.7374      53556.907      6724.9433      48.731617      2.3577398     -150087.11     -147249.98    
     60800   1261.894      -22915.741      6724.9433      48.731617      2.3577398     -150038.53     -147051.92    
     60900   1290.9413     -73854.765      6724.9433      48.731617      2.3577398     -150017.53     -146962.18    
     61000   1209.6599     -37469.466      6724.9433      48.731617      2.3577398     -150054.83     -147191.85    
     61100   1191.1112      56214.195      6724.9433      48.731617      2.3577398     -150099.34     -147280.26    
     61200   1191.3926      3962.1812      6724.9433      48.731617      2.3577398     -150194.14     -147374.39    
     61300   1151.1031      34295.987      6724.9433      48.731617      2.3577398     -150119.24     -147394.85    
     61400   1238.1212      62103.402      6724.9433      48.731617      2.3577398     -150197.6      -147267.26    
     61500   1234.8505     -36042.615      6724.9433      48.731617      2.3577398     -150089.11     -147166.51    
     61600   1221.3372      24524.628      6724.9433      48.731617      2.3577398     -150122.92     -147232.31    
     61700   1144.9321      35940.38       6724.9433      48.731617      2.3577398     -150158.39     -147448.6     
     61800   1209.3829      49476.518      6724.9433      48.731617      2.3577398     -150324.54     -147462.22    
     61900   1238.9358      32690.236      6724.9433      48.731617      2.3577398     -150309.69     -147377.43    
     62000   1185.1042     -9512.2408      6724.9433      48.731617      2.3577398     -150107.36     -147302.5     
     62100   1230.9812     -38957.659      6724.9433      48.731617      2.3577398     -150064.57     -147151.13    
     62200   1231.0678      43993.427      6724.9433      48.731617      2.3577398     -150049.53     -147135.88    
     62300   1153.4689      78733.811      6724.9433      48.731617      2.3577398     -150066.47     -147336.48    
     62400   1170.3839      9682.4044      6724.9433      48.731617      2.3577398     -150177.79     -147407.77    
     62500   1195.8955     -45736.229      6724.9433      48.731617      2.3577398     -150173.24     -147342.84    
     62600   1230.5967      20829.885      6724.9433      48.731617      2.3577398     -150120.79     -147208.26    
     62700   1213.578       66610.15       6724.9433      48.731617      2.3577398     -150095.12     -147222.87    
     62800   1200.6743      42651.562      6724.9433      48.731617      2.3577398     -150217.36     -147375.65    
     62900   1212.148       31208.041      6724.9433      48.731617      2.3577398     -150302.02     -147433.16    
     63000   1181.0877      15342.521      6724.9433      48.731617      2.3577398     -150126.85     -147331.49    
     63100   1283.4931      34712.715      6724.9433      48.731617      2.3577398     -150101.25     -147063.52    
     63200   1279.532      -7802.3798      6724.9433      48.731617      2.3577398     -150138.39     -147110.04    
     63300   1184.6478      102415.67      6724.9433      48.731617      2.3577398     -150059.76     -147255.98    
     63400   1225.5547      54878.345      6724.9433      48.731617      2.3577398     -150266.17     -147365.57    
     63500   1197.3414      13688.846      6724.9433      48.731617      2.3577398     -150261.14     -147427.31    
     63600   1189.6088      70874.997      6724.9433      48.731617      2.3577398     -150161.94     -147346.41    
     63700   1224.4475      8533.4316      6724.9433      48.731617      2.3577398     -149999.43     -147101.45    
     63800   1232.4989      7471.9534      6724.9433      48.731617      2.3577398     -150027.91     -147110.87    
     63900   1220.9495      106212.44      6724.9433      48.731617      2.3577398     -150153.77     -147264.07    
     64000   1189.5137      19672.245      6724.9433      48.731617      2.3577398     -150144.75     -147329.46    
     64100   1157.8827     -12743.083      6724.9433      48.731617      2.3577398     -150075.1      -147334.66    
     64200   1243.7985      63222.325      6724.9433      48.731617      2.3577398     -150213.8      -147270.02    
     64300   1230.0844      10883.733      6724.9433      48.731617      2.3577398     -149980.03     -147068.72    
     64400   1271.5032      30529.218      6724.9433      48.731617      2.3577398     -150051.55     -147042.21    
     64500   1214.73        9191.9304      6724.9433      48.731617      2.3577398     -150098.9      -147223.92    
[...]
    384200   1203.4068     -5760.1668      6724.9433      48.731617      2.3577398     -150456.73     -147608.55    
    384300   1170.7786      2843.0811      6724.9433      48.731617      2.3577398     -150456.02     -147685.07    
    384400   1166.7732      27184.43       6724.9433      48.731617      2.3577398     -150473.01     -147711.54    
    384500   1176.6678      23798.74       6724.9433      48.731617      2.3577398     -150531.16     -147746.26    
    384600   1193.7276      57118.512      6724.9433      48.731617      2.3577398     -150467.97     -147642.7     
    384700   1207.9179      77395.224      6724.9433      48.731617      2.3577398     -150352.61     -147493.75    
    384800   1239.2289      25632.602      6724.9433      48.731617      2.3577398     -150403.13     -147470.17    
    384900   1198.131      -26981.106      6724.9433      48.731617      2.3577398     -150379.89     -147544.2     
    385000   1190.6943      79560.834      6724.9433      48.731617      2.3577398     -150530.77     -147712.67    
    385100   1149.6262     -5664.2841      6724.9433      48.731617      2.3577398     -150507.73     -147786.84    
    385200   1150.5229      6820.8996      6724.9433      48.731617      2.3577398     -150359.54     -147636.53    
    385300   1225.4025      6188.2539      6724.9433      48.731617      2.3577398     -150411.23     -147510.99    
    385400   1227.618       59409.97       6724.9433      48.731617      2.3577398     -150421.37     -147515.89    
    385500   1181.358      -24374.079      6724.9433      48.731617      2.3577398     -150404.54     -147608.55    
    385600   1179.6686      11138.564      6724.9433      48.731617      2.3577398     -150448.47     -147656.47    
    385700   1178.5109      49401.339      6724.9433      48.731617      2.3577398     -150376.88     -147587.63    
    385800   1249.3419      45701.994      6724.9433      48.731617      2.3577398     -150344.05     -147387.15    
    385900   1134.3651     -19528.912      6724.9433      48.731617      2.3577398     -150086.95     -147402.17    
    386000   1187.9144      30437.021      6724.9433      48.731617      2.3577398     -150352.07     -147540.56    
    386100   1169.5652      100294.65      6724.9433      48.731617      2.3577398     -150427.56     -147659.48    
    386200   1145.2837      38940.653      6724.9433      48.731617      2.3577398     -150348.33     -147637.71    
    386300   1183.5543     -32675.378      6724.9433      48.731617      2.3577398     -150346.04     -147544.85    
    386400   1208.7903      17481.397      6724.9433      48.731617      2.3577398     -150329.41     -147468.49    
    386500   1177.5412     -1818.2663      6724.9433      48.731617      2.3577398     -150217.59     -147430.63    
    386600   1214.739      -17457.578      6724.9433      48.731617      2.3577398     -150422.11     -147547.11    
    386700   1208.4896     -16860.431      6724.9433      48.731617      2.3577398     -150535.69     -147675.48    
    386800   1179.9335      84088.193      6724.9433      48.731617      2.3577398     -150491.04     -147698.42    
    386900   1214.0561      14934.87       6724.9433      48.731617      2.3577398     -150457.32     -147583.93    
    387000   1228.5967      37746.448      6724.9433      48.731617      2.3577398     -150360.18     -147452.38    
    387100   1254.9626      1492.0836      6724.9433      48.731617      2.3577398     -150321.41     -147351.21    
    387200   1251.1459      35333.039      6724.9433      48.731617      2.3577398     -150238.03     -147276.86    
    387300   1262.8473      32917.405      6724.9433      48.731617      2.3577398     -150342.83     -147353.96    
    387400   1202.6417      56945.515      6724.9433      48.731617      2.3577398     -150409.61     -147563.24    
    387500   1155.1257      1090.6643      6724.9433      48.731617      2.3577398     -150377.99     -147644.08    
    387600   1137.4188      1552.1877      6724.9433      48.731617      2.3577398     -150308.4      -147616.4     
    387700   1221.3379      26535.475      6724.9433      48.731617      2.3577398     -150377.71     -147487.09    
    387800   1228.9306      46242.437      6724.9433      48.731617      2.3577398     -150265.57     -147356.98    
    387900   1198.2625      47550.1        6724.9433      48.731617      2.3577398     -150272.85     -147436.85    
    388000   1153.2541     -16475.689      6724.9433      48.731617      2.3577398     -150384.92     -147655.44    
    388100   1195.513       22418.596      6724.9433      48.731617      2.3577398     -150541.73     -147712.23    
    388200   1190.7301      17221.551      6724.9433      48.731617      2.3577398     -150446.96     -147628.78    
    388300   1190.9969     -5817.3377      6724.9433      48.731617      2.3577398     -150343.91     -147525.1     
    388400   1202.7001     -10047.695      6724.9433      48.731617      2.3577398     -150256.65     -147410.15    
    388500   1286.484       25227.428      6724.9433      48.731617      2.3577398     -150423.09     -147378.28    
    388600   1169.6153      24990.036      6724.9433      48.731617      2.3577398     -150401.29     -147633.09    
    388700   1167.8499      15088.415      6724.9433      48.731617      2.3577398     -150443.99     -147679.96    
    388800   1201.078      -5538.2447      6724.9433      48.731617      2.3577398     -150431.81     -147589.14    
    388900   1205.21        26008.086      6724.9433      48.731617      2.3577398     -150302.19     -147449.74    
    389000   1218.7274     -15024.378      6724.9433      48.731617      2.3577398     -150303.82     -147419.38    
    389100   1209.4203      33048.069      6724.9433      48.731617      2.3577398     -150393.64     -147531.23    
    389200   1181.4561      12695.298      6724.9433      48.731617      2.3577398     -150437.23     -147641       
    389300   1159.5935      44504.14       6724.9433      48.731617      2.3577398     -150392.91     -147648.43    
    389400   1193.0583      13895.657      6724.9433      48.731617      2.3577398     -150395.85     -147572.16    
    389500   1236.4568      59447.286      6724.9433      48.731617      2.3577398     -150420.29     -147493.89    
    389600   1207.2952      34512.387      6724.9433      48.731617      2.3577398     -150427.9      -147570.52    
    389700   1171.2118      25530.603      6724.9433      48.731617      2.3577398     -150470.51     -147698.53    
    389800   1113.9271      82593.458      6724.9433      48.731617      2.3577398     -150405.37     -147768.97    
    389900   1188.9422     -18937.053      6724.9433      48.731617      2.3577398     -150370.74     -147556.79    
    390000   1225.3668     -29800.753      6724.9433      48.731617      2.3577398     -150337.06     -147436.91    
    390100   1206.3647      10074.498      6724.9433      48.731617      2.3577398     -150328.67     -147473.49    
    390200   1204.9693      24126.071      6724.9433      48.731617      2.3577398     -150468.77     -147616.89    
    390300   1179.1398      46316.817      6724.9433      48.731617      2.3577398     -150509.67     -147718.93    
    390400   1201.369       26793.954      6724.9433      48.731617      2.3577398     -150530.97     -147687.62    
    390500   1227.2365     -6480.0163      6724.9433      48.731617      2.3577398     -150527.51     -147622.93    
    390600   1226.7119      76106.659      6724.9433      48.731617      2.3577398     -150483.7      -147580.37    
    390700   1181.0363      17390.92       6724.9433      48.731617      2.3577398     -150364.28     -147569.04    
    390800   1205.7107      1920.9887      6724.9433      48.731617      2.3577398     -150423.81     -147570.18    
    390900   1201.438       16332.9        6724.9433      48.731617      2.3577398     -150456.48     -147612.96    
    391000   1233.7815      13672.023      6724.9433      48.731617      2.3577398     -150617.37     -147697.3     
    391100   1143.5435      58157.516      6724.9433      48.731617      2.3577398     -150492.86     -147786.36    
    391200   1179.0257      3445.9571      6724.9433      48.731617      2.3577398     -150457.31     -147666.84    
    391300   1264.5662      31068.994      6724.9433      48.731617      2.3577398     -150465.13     -147472.2     
    391400   1171.6403     -12028.374      6724.9433      48.731617      2.3577398     -150268.94     -147495.95    
    391500   1152.6505     -30308.674      6724.9433      48.731617      2.3577398     -150343.26     -147615.2     
    391600   1167.0539     -13349.793      6724.9433      48.731617      2.3577398     -150449.78     -147687.64    
    391700   1233.8098     -1326.9036      6724.9433      48.731617      2.3577398     -150565.32     -147645.19    
    391800   1213.9598      3618.8243      6724.9433      48.731617      2.3577398     -150262.79     -147389.63    
    391900   1282.1096     -6.4997772      6724.9433      48.731617      2.3577398     -150359.25     -147324.8     
    392000   1265.5187      81832.01       6724.9433      48.731617      2.3577398     -150459.2      -147464.01    
    392100   1247.2912      21309.744      6724.9433      48.731617      2.3577398     -150541.42     -147589.38    
    392200   1184.6033     -33846.256      6724.9433      48.731617      2.3577398     -150410.93     -147607.25    
    392300   1214.9986      32384.927      6724.9433      48.731617      2.3577398     -150479.75     -147604.13    
    392400   1283.6517      19225.619      6724.9433      48.731617      2.3577398     -150590.54     -147552.44    
    392500   1188.9342      7978.8343      6724.9433      48.731617      2.3577398     -150329.28     -147515.36    
    392600   1235.1883      44123.648      6724.9433      48.731617      2.3577398     -150436.08     -147512.68    
    392700   1221.6683      12479.823      6724.9433      48.731617      2.3577398     -150501.52     -147610.12    
    392800   1173.5401      18040.499      6724.9433      48.731617      2.3577398     -150515.94     -147738.45    
    392900   1165.2664     -12147.081      6724.9433      48.731617      2.3577398     -150576.71     -147818.8     
    393000   1147.4253      30967.584      6724.9433      48.731617      2.3577398     -150367.27     -147651.59    
    393100   1215.5335     -10137.435      6724.9433      48.731617      2.3577398     -150388.02     -147511.14    
    393200   1144.5312      67862.637      6724.9433      48.731617      2.3577398     -150235.53     -147526.7     
    393300   1157.3334     -13576.098      6724.9433      48.731617      2.3577398     -150298.62     -147559.48    
    393400   1158.3724      9264.4612      6724.9433      48.731617      2.3577398     -150380.84     -147639.25    
    393500   1199.6956      39387.235      6724.9433      48.731617      2.3577398     -150470.32     -147630.92    
    393600   1190.7528     -24461.545      6724.9433      48.731617      2.3577398     -150330.2      -147511.97    
    393700   1235.8302      6603.6511      6724.9433      48.731617      2.3577398     -150317.69     -147392.77    
    393800   1216.6692     -69391.175      6724.9433      48.731617      2.3577398     -150359.43     -147479.86    
    393900   1193.3767      30202.129      6724.9433      48.731617      2.3577398     -150480.79     -147656.35    
    394000   1172.9779      28158.447      6724.9433      48.731617      2.3577398     -150451.55     -147675.39    
    394100   1203.1482     -10547.648      6724.9433      48.731617      2.3577398     -150449.69     -147602.13    
    394200   1232.0268     -27528.725      6724.9433      48.731617      2.3577398     -150431.92     -147516.01    
    394300   1215.1396      38733.01       6724.9433      48.731617      2.3577398     -150302.42     -147426.47    
    394400   1245.3658      990.66806      6724.9433      48.731617      2.3577398     -150294.75     -147347.27    
    394500   1218.8038      30295.834      6724.9433      48.731617      2.3577398     -150382.5      -147497.88    
    394600   1175.9562      30894.558      6724.9433      48.731617      2.3577398     -150435.45     -147652.24    
    394700   1174.2427     -26026.855      6724.9433      48.731617      2.3577398     -150469.28     -147690.12    
    394800   1169.64        13711.417      6724.9433      48.731617      2.3577398     -150382.71     -147614.45    
    394900   1224.7643      51509.871      6724.9433      48.731617      2.3577398     -150330.12     -147431.39    
    395000   1223.9904      24937.93       6724.9433      48.731617      2.3577398     -150329.08     -147432.18    
    395100   1220.8248     -5605.3911      6724.9433      48.731617      2.3577398     -150401.23     -147511.82    
    395200   1225.3082      19351.7        6724.9433      48.731617      2.3577398     -150441.38     -147541.37    
    395300   1223.7138      69335.236      6724.9433      48.731617      2.3577398     -150477.56     -147581.32    
    395400   1194.4374     -10479.981      6724.9433      48.731617      2.3577398     -150515.93     -147688.98    
    395500   1201.116      -2850.3288      6724.9433      48.731617      2.3577398     -150696.27     -147853.51    
    395600   1160.6681     -16575.682      6724.9433      48.731617      2.3577398     -150596.16     -147849.13    
    395700   1218.0764      33899.647      6724.9433      48.731617      2.3577398     -150610.6      -147727.7     
    395800   1215.9588     -22441.473      6724.9433      48.731617      2.3577398     -150376.65     -147498.76    
    395900   1283.8082      15560.975      6724.9433      48.731617      2.3577398     -150429.6      -147391.13    
    396000   1200.5022      35929.488      6724.9433      48.731617      2.3577398     -150343.49     -147502.19    
    396100   1205.9935      31047.168      6724.9433      48.731617      2.3577398     -150483.38     -147629.08    
    396200   1180.6018      14759.54       6724.9433      48.731617      2.3577398     -150534.57     -147740.36    
    396300   1189.2413     -55572.39       6724.9433      48.731617      2.3577398     -150610.13     -147795.48    
    396400   1164.3135     -61348.404      6724.9433      48.731617      2.3577398     -150577.59     -147821.94    
    396500   1181.2076      23953.998      6724.9433      48.731617      2.3577398     -150502.43     -147706.79    
    396600   1225.6948      80564.532      6724.9433      48.731617      2.3577398     -150437.18     -147536.25    
    396700   1281.2232      41120.612      6724.9433      48.731617      2.3577398     -150551.47     -147519.12    
    396800   1208.5989     -56903.518      6724.9433      48.731617      2.3577398     -150535.7      -147675.23    
    396900   1172.6099      5960.8777      6724.9433      48.731617      2.3577398     -150525.44     -147750.15    
    397000   1220.2861      6456.3037      6724.9433      48.731617      2.3577398     -150609.33     -147721.21    
    397100   1181.8604      44075.564      6724.9433      48.731617      2.3577398     -150480.59     -147683.41    
    397200   1203.6116     -2365.1507      6724.9433      48.731617      2.3577398     -150487.78     -147639.11    
    397300   1250.2207      41024.717      6724.9433      48.731617      2.3577398     -150531.9      -147572.93    
    397400   1249.6381     -36945.472      6724.9433      48.731617      2.3577398     -150408.16     -147450.56    
    397500   1208.0501      11557.457      6724.9433      48.731617      2.3577398     -150351.31     -147492.14    
    397600   1215.3559      45387.997      6724.9433      48.731617      2.3577398     -150559.33     -147682.87    
    397700   1165.5597      37125.754      6724.9433      48.731617      2.3577398     -150490.78     -147732.17    
    397800   1184.1394      8079.7628      6724.9433      48.731617      2.3577398     -150455.72     -147653.14    
    397900   1195.3015     -18728.91       6724.9433      48.731617      2.3577398     -150411.49     -147582.5     
    398000   1261.3469      11479.531      6724.9433      48.731617      2.3577398     -150405.97     -147420.66    
    398100   1289.1586     -48347.68       6724.9433      48.731617      2.3577398     -150337        -147285.87    
    398200   1262.5984     -6788.0124      6724.9433      48.731617      2.3577398     -150432.85     -147444.58    
    398300   1237.3356     -14484.836      6724.9433      48.731617      2.3577398     -150508.21     -147579.73    
    398400   1193.3929      30693.791      6724.9433      48.731617      2.3577398     -150516.85     -147692.37    
    398500   1188.0879     -25689.447      6724.9433      48.731617      2.3577398     -150549.83     -147737.9     
    398600   1192.6428     -16151.376      6724.9433      48.731617      2.3577398     -150517.86     -147695.16    
    398700   1196.3087     -35456.811      6724.9433      48.731617      2.3577398     -150421.99     -147590.61    
    398800   1234.2467     -40344.544      6724.9433      48.731617      2.3577398     -150379.01     -147457.84    
    398900   1208.4642     -9449.0658      6724.9433      48.731617      2.3577398     -150395.57     -147535.43    
    399000   1116.4806      9270.1276      6724.9433      48.731617      2.3577398     -150356.11     -147713.67    
    399100   1207.0963      22148.294      6724.9433      48.731617      2.3577398     -150612.8      -147755.89    
    399200   1173.14        50578.207      6724.9433      48.731617      2.3577398     -150501.2      -147724.65    
    399300   1225.3306     -13029.288      6724.9433      48.731617      2.3577398     -150489.3      -147589.23    
    399400   1242.8659     -5423.2554      6724.9433      48.731617      2.3577398     -150410.55     -147468.98    
    399500   1254.047      -55619.731      6724.9433      48.731617      2.3577398     -150340.03     -147372       
    399600   1192.2285     -634.33153      6724.9433      48.731617      2.3577398     -150357.6      -147535.87    
    399700   1209.1783      7579.2659      6724.9433      48.731617      2.3577398     -150540.67     -147678.83    
    399800   1215.9097     -14963.535      6724.9433      48.731617      2.3577398     -150605.5      -147727.73    
    399900   1158.7917      53708.84       6724.9433      48.731617      2.3577398     -150381.51     -147638.92    
    400000   1283.1345      32344.759      6724.9433      48.731617      2.3577398     -150501.83     -147464.96    
    400011   1244.2896      5274.4279      6724.9433      48.731617      2.3577398     -150397.48     -147452.54    
Loop time of 14847.7 on 64 procs for 400000 steps with 795 atoms

Performance: 0.582 ns/day, 41.243 hours/ns, 26.940 timesteps/s
99.6% CPU use with 64 MPI tasks x 1 OpenMP threads

MPI task timing breakdown:
Section |  min time  |  avg time  |  max time  |%varavg| %total
---------------------------------------------------------------
Pair    | 7726.2     | 10805      | 13317      |1545.0 | 72.77
Neigh   | 97.306     | 141.6      | 171.9      | 181.4 |  0.95
Comm    | 182.48     | 2511.7     | 5596.4     |2965.5 | 16.92
Output  | 0.50948    | 0.6254     | 0.88654    |   9.4 |  0.00
Modify  | 1160.3     | 1386.2     | 2012.2     | 587.5 |  9.34
Other   |            | 2.892      |            |       |  0.02

Nlocal:        12.4219 ave          15 max           2 min
Histogram: 2 2 0 0 1 2 7 6 15 29
Nghost:        2087.05 ave        2384 max        1773 min
Histogram: 14 2 0 2 12 6 6 9 5 8
Neighs:        7003.66 ave        9156 max         790 min
Histogram: 4 0 0 1 3 3 9 8 17 19

Total # of neighbors = 448234
Ave neighs/atom = 563.81635
Neighbor list builds = 13535
Dangerous builds = 0

write_data graphene_single_layer_ReaxFF_795_C_temp_1200K.data ### MODIFY FILE NAME ###
System init for write_data ...
Total wall time: 4:07:30
