
# System definition
read_data graphene_single_layer_x-45_y-45_795_C.data ### MODIFY FILE NAME ###
Reading data file ...
  orthogonal box = (-1.4464652 -1.4423034 -1.42) to (47.285152 47.149102 1.42)
  8 by 8 by 1 MPI processor grid
  reading atoms ...
  795 atoms
  reading velocities ...
  795 velocities
  read_data CPU = 0.020 seconds

pair_style reax/c NULL
pair_coeff * * ffield.reax.cho C
Reading potential file ffield.reax.cho with DATE: 2011-02-18
fix qeq_reax all qeq/reax 1 0.0 10.0 1.0e-6 reax/c


# Minimization
timestep 0.25
min_style cg
thermo 100
thermo_style custom step temp press vol lx density pe etotal
dump 2 all custom 1000 graphene_single_layer_ReaxFF_795_C_temp_1100K.lammpstrj id type x y z ### MODIFY FILE NAME ###
minimize 1.0e-6 1.0e-6 100 1000

CITE-CITE-CITE-CITE-CITE-CITE-CITE-CITE-CITE-CITE-CITE-CITE-CITE

Your simulation uses code contributions which should be cited:

- pair reaxff command:

@Article{Aktulga12,
 author = {H. M. Aktulga, J. C. Fogarty, S. A. Pandit, A. Y. Grama},
 title = {Parallel reactive molecular dynamics: Numerical methods and algorithmic techniques},
 journal = {Parallel Computing},
 year =    2012,
 volume =  38,
 pages =   {245--259}
}

- fix qeq/reaxff command:

@Article{Aktulga12,
 author = {H. M. Aktulga, J. C. Fogarty, S. A. Pandit, A. Y. Grama},
 title = {Parallel reactive molecular dynamics: Numerical methods and algorithmic techniques},
 journal = {Parallel Computing},
 year =    2012,
 volume =  38,
 pages =   {245--259}
}

CITE-CITE-CITE-CITE-CITE-CITE-CITE-CITE-CITE-CITE-CITE-CITE-CITE

WARNING: Using 'neigh_modify every 1 delay 0 check yes' setting during minimization (src/min.cpp:187)
Neighbor list info ...
  update every 1 steps, delay 0 steps, check yes
  max neighbors/atom: 10000, page size: 100000
  master list distance cutoff = 10.4
  ghost atom cutoff = 10.4
  binsize = 5.2, bins = 10 10 1
  2 neighbor lists, perpetual/occasional/extra = 2 0 0
  (1) pair reax/c, perpetual
      attributes: half, newton off, ghost
      pair build: half/bin/newtoff/ghost
      stencil: full/ghost/bin/3d
      bin: standard
  (2) fix qeq/reax, perpetual, copy from (1)
      attributes: half, newton off
      pair build: copy
      stencil: none
      bin: none
Per MPI rank memory allocation (min/avg/max) = 36.37 | 41.41 | 47.38 Mbytes
   Step          Temp          Press          Volume           Lx          Density         PotEng         TotEng    
         0   923            34054.396      6724.9433      48.731617      2.3577398     -151766.67     -149582.14    
        11   923            35396.792      6724.9433      48.731617      2.3577398     -151904.55     -149720.03    
Loop time of 2.20084 on 64 procs for 11 steps with 795 atoms

99.6% CPU use with 64 MPI tasks x 1 OpenMP threads

Minimization stats:
  Stopping criterion = energy tolerance
  Energy initial, next-to-last, final = 
     -151766.666472543  -151904.508881892  -151904.547898656
  Force two-norm initial, final = 279.94165 356.09863
  Force max component initial, final = 137.99181 55.448555
  Final line search alpha, max atom move = 0.00038853166 0.021543519
  Iterations, force evaluations = 11 32

MPI task timing breakdown:
Section |  min time  |  avg time  |  max time  |%varavg| %total
---------------------------------------------------------------
Pair    | 0.7782     | 1.2299     | 1.7093     |  18.0 | 55.88
Neigh   | 0.013744   | 0.018483   | 0.024011   |   1.9 |  0.84
Comm    | 0.068306   | 0.50938    | 1.08       |  27.6 | 23.15
Output  | 0          | 0          | 0          |   0.0 |  0.00
Modify  | 0.31157    | 0.31716    | 0.32178    |   0.5 | 14.41
Other   |            | 0.1259     |            |       |  5.72

Nlocal:        12.4219 ave          15 max          10 min
Histogram: 15 0 0 0 22 0 12 0 0 15
Nghost:        2194.12 ave        2559 max        1869 min
Histogram: 2 8 9 4 12 12 5 4 6 2
Neighs:        6807.34 ave        8856 max        4476 min
Histogram: 4 8 3 7 7 13 5 2 0 15

Total # of neighbors = 435670
Ave neighs/atom = 548.01258
Neighbor list builds = 1
Dangerous builds = 0

fix 1 all nvt temp 1100.0 1100.0 $(100.0*dt)  ### MODIFY INIT TEMP, FINAL TEMP ###
fix 1 all nvt temp 1100.0 1100.0 25  
run 400000
Per MPI rank memory allocation (min/avg/max) = 35.25 | 40.29 | 46.26 Mbytes
   Step          Temp          Press          Volume           Lx          Density         PotEng         TotEng    
        11   923            35396.792      6724.9433      48.731617      2.3577398     -151904.55     -149720.03    
       100   605.14171      29357.647      6724.9433      48.731617      2.3577398     -150939.01     -149506.78    
       200   621.61874      187766.58      6724.9433      48.731617      2.3577398     -150564.58     -149093.36    
       300   862.56507     -1902.8073      6724.9433      48.731617      2.3577398     -150629.16     -148587.67    
       400   1000.2309     -24428.034      6724.9433      48.731617      2.3577398     -150402.81     -148035.5     
       500   1123.9052      40111.119      6724.9433      48.731617      2.3577398     -150206.75     -147546.73    
       600   1149.3887      46985.745      6724.9433      48.731617      2.3577398     -149983.55     -147263.22    
       700   1223.2425      17422.091      6724.9433      48.731617      2.3577398     -150201.26     -147306.13    
       800   1101.9268      55720.14       6724.9433      48.731617      2.3577398     -150189.88     -147581.88    
       900   1070.3571      51942.765      6724.9433      48.731617      2.3577398     -150370.02     -147836.74    
      1000   1062.2364      3523.9411      6724.9433      48.731617      2.3577398     -150398.13     -147884.07    
      1100   1104.232      -16548.701      6724.9433      48.731617      2.3577398     -150355.29     -147741.84    
      1200   1137.1178      50424.353      6724.9433      48.731617      2.3577398     -150267.25     -147575.96    
      1300   1127.2813      33054.799      6724.9433      48.731617      2.3577398     -150177.4      -147509.39    
      1400   1119.2399      20566.779      6724.9433      48.731617      2.3577398     -150228.98     -147580       
      1500   1130.34        51492.904      6724.9433      48.731617      2.3577398     -150363.76     -147688.51    
      1600   1074.079      -9562.5068      6724.9433      48.731617      2.3577398     -150363.11     -147821.02    
      1700   1024.491       25700.706      6724.9433      48.731617      2.3577398     -150276.34     -147851.61    
      1800   1132.8805      15741.641      6724.9433      48.731617      2.3577398     -150416.88     -147735.62    
      1900   1112.0003      18882.753      6724.9433      48.731617      2.3577398     -150250.83     -147618.98    
      2000   1150.5326      19935.231      6724.9433      48.731617      2.3577398     -150319.4      -147596.36    
      2100   1087.5201      6148.3124      6724.9433      48.731617      2.3577398     -150244.42     -147670.51    
      2200   1095.2093      28823.853      6724.9433      48.731617      2.3577398     -150365.31     -147773.21    
      2300   1094.5388      126567.56      6724.9433      48.731617      2.3577398     -150365.95     -147775.43    
      2400   1085.2336      20333.129      6724.9433      48.731617      2.3577398     -150308.87     -147740.38    
      2500   1122.555      -2853.5052      6724.9433      48.731617      2.3577398     -150310.3      -147653.48    
      2600   1107.0288      43410.71       6724.9433      48.731617      2.3577398     -150252.65     -147632.58    
      2700   1096.3882      50014.982      6724.9433      48.731617      2.3577398     -150261.48     -147666.58    
      2800   1084.9068      70422.327      6724.9433      48.731617      2.3577398     -150251.28     -147683.57    
      2900   1093.0044     -28562.101      6724.9433      48.731617      2.3577398     -150299.07     -147712.18    
      3000   1107.5035     -15757.122      6724.9433      48.731617      2.3577398     -150354.34     -147733.14    
      3100   1081.9122      4581.7453      6724.9433      48.731617      2.3577398     -150287.23     -147726.6     
      3200   1100.7863      30177.751      6724.9433      48.731617      2.3577398     -150332.67     -147727.37    
      3300   1051.978       25280.74       6724.9433      48.731617      2.3577398     -150211.72     -147721.94    
      3400   1068.2806      112636.17      6724.9433      48.731617      2.3577398     -150137.33     -147608.96    
      3500   1171.0974      6730.0134      6724.9433      48.731617      2.3577398     -150260.03     -147488.32    
      3600   1125.7475      54683.218      6724.9433      48.731617      2.3577398     -150200.46     -147536.09    
      3700   1063.0421      50152.656      6724.9433      48.731617      2.3577398     -150253.38     -147737.41    
      3800   1103.2123      22085.111      6724.9433      48.731617      2.3577398     -150389.16     -147778.12    
      3900   1079.3719     -53318.855      6724.9433      48.731617      2.3577398     -150295.69     -147741.07    
      4000   1089.7057     -19869.077      6724.9433      48.731617      2.3577398     -150241.58     -147662.51    
      4100   1136.2144     -952.60205      6724.9433      48.731617      2.3577398     -150281.32     -147592.17    
      4200   1100.3073      67410.5        6724.9433      48.731617      2.3577398     -150264.69     -147660.52    
      4300   1058.9179      73637.898      6724.9433      48.731617      2.3577398     -150304.63     -147798.42    
      4400   1090.6322      20027.759      6724.9433      48.731617      2.3577398     -150398.07     -147816.81    
      4500   1135.3806     -39015.275      6724.9433      48.731617      2.3577398     -150347.29     -147660.11    
      4600   1205.6334      12779.833      6724.9433      48.731617      2.3577398     -150384.49     -147531.05    
      4700   1122.9746      85174.903      6724.9433      48.731617      2.3577398     -150263.17     -147605.35    
      4800   1121.1283      39975.237      6724.9433      48.731617      2.3577398     -150318.51     -147665.06    
      4900   1137.0046     -10219.696      6724.9433      48.731617      2.3577398     -150398.89     -147707.87    
      5000   1040.2811     -44094.379      6724.9433      48.731617      2.3577398     -150354.33     -147892.23    
      5100   1057.278      -5135.4063      6724.9433      48.731617      2.3577398     -150467.05     -147964.72    
      5200   1119.7563     -25355.57       6724.9433      48.731617      2.3577398     -150524.16     -147873.96    
      5300   1080.1785      52268.015      6724.9433      48.731617      2.3577398     -150323.98     -147767.46    
      5400   1113.1097      53596.674      6724.9433      48.731617      2.3577398     -150352.32     -147717.86    
      5500   1114.047      -5319.1938      6724.9433      48.731617      2.3577398     -150358.31     -147721.62    
      5600   1071.0332      99890.636      6724.9433      48.731617      2.3577398     -150318.33     -147783.45    
      5700   1093.719       53677.7        6724.9433      48.731617      2.3577398     -150546.46     -147957.89    
      5800   1129.8361      48189.921      6724.9433      48.731617      2.3577398     -150680.05     -148005.99    
      5900   1068.1019     -22402.513      6724.9433      48.731617      2.3577398     -150407.21     -147879.26    
      6000   1088.0666     -41172.605      6724.9433      48.731617      2.3577398     -150333.22     -147758.02    
      6100   1108.0768      81790.061      6724.9433      48.731617      2.3577398     -150351.34     -147728.79    
      6200   1085.6718      7547.6184      6724.9433      48.731617      2.3577398     -150325.36     -147755.83    
      6300   1069.4244     -81525.223      6724.9433      48.731617      2.3577398     -150341.18     -147810.11    
      6400   1060.7665      16679.64       6724.9433      48.731617      2.3577398     -150406.36     -147895.77    
      6500   1062.8631      62627.864      6724.9433      48.731617      2.3577398     -150439.62     -147924.07    
      6600   1106.2055     -21632.724      6724.9433      48.731617      2.3577398     -150431.44     -147813.31    
      6700   1099.0592     -41875.693      6724.9433      48.731617      2.3577398     -150266.66     -147665.45    
      6800   1145.5161      7142.9889      6724.9433      48.731617      2.3577398     -150349.56     -147638.39    
      6900   1103.8225      75707.029      6724.9433      48.731617      2.3577398     -150371.06     -147758.57    
      7000   1103.629       51357.854      6724.9433      48.731617      2.3577398     -150483.37     -147871.35    
      7100   1085.14        33128.79       6724.9433      48.731617      2.3577398     -150421.77     -147853.5     
      7200   1133.8591     -41571.634      6724.9433      48.731617      2.3577398     -150461.73     -147778.16    
      7300   1081.1534     -30525.443      6724.9433      48.731617      2.3577398     -150285.07     -147726.23    
      7400   1073.008       10086.647      6724.9433      48.731617      2.3577398     -150309.19     -147769.63    
      7500   1086.7146      72239.919      6724.9433      48.731617      2.3577398     -150490.15     -147918.16    
      7600   1047.2634     -15035.46       6724.9433      48.731617      2.3577398     -150396.86     -147918.24    
      7700   1129.1453     -41862.814      6724.9433      48.731617      2.3577398     -150427.44     -147755.02    
      7800   1100.427      -76524.494      6724.9433      48.731617      2.3577398     -150263.66     -147659.21    
      7900   1106.3384      51785.258      6724.9433      48.731617      2.3577398     -150322.73     -147704.29    
      8000   1108.8798      51192.636      6724.9433      48.731617      2.3577398     -150348.58     -147724.12    
      8100   1104.3998      34274.361      6724.9433      48.731617      2.3577398     -150353.05     -147739.2     
      8200   1108.4697     -7376.9967      6724.9433      48.731617      2.3577398     -150374.79     -147751.31    
      8300   1101.3929     -12025.863      6724.9433      48.731617      2.3577398     -150488.73     -147881.99    
      8400   1087.1595     -20173.926      6724.9433      48.731617      2.3577398     -150580.83     -148007.78    
      8500   1057.1996      13530.146      6724.9433      48.731617      2.3577398     -150456.95     -147954.81    
      8600   1126.3775     -12093.546      6724.9433      48.731617      2.3577398     -150444.61     -147778.74    
      8700   1083.3617      47647.972      6724.9433      48.731617      2.3577398     -150287.48     -147723.42    
      8800   1109.2241      41256.203      6724.9433      48.731617      2.3577398     -150310.96     -147685.69    
      8900   1157.8798     -32852.162      6724.9433      48.731617      2.3577398     -150401.74     -147661.32    
      9000   1113.104      -8682.4645      6724.9433      48.731617      2.3577398     -150369.62     -147735.16    
      9100   1081.1144      16724.38       6724.9433      48.731617      2.3577398     -150456.26     -147897.51    
      9200   1088.1031      19886.978      6724.9433      48.731617      2.3577398     -150472.98     -147897.7     
      9300   1118.586       38629.625      6724.9433      48.731617      2.3577398     -150416.44     -147769.02    
      9400   1108.2945     -13104.649      6724.9433      48.731617      2.3577398     -150362.79     -147739.72    
      9500   1100.9312      13644.861      6724.9433      48.731617      2.3577398     -150318.05     -147712.4     
      9600   1119.512       33554.267      6724.9433      48.731617      2.3577398     -150379.28     -147729.66    
      9700   1135.5544     -8072.1793      6724.9433      48.731617      2.3577398     -150554.15     -147866.57    
      9800   1056.3985      51941.498      6724.9433      48.731617      2.3577398     -150518.83     -148018.59    
      9900   1071.211       15527.761      6724.9433      48.731617      2.3577398     -150475.95     -147940.65    
     10000   1096.0517     -21807.215      6724.9433      48.731617      2.3577398     -150409.93     -147815.83    
     10100   1093.5991      44296.717      6724.9433      48.731617      2.3577398     -150328.49     -147740.2     
     10200   1147.7185      37236.883      6724.9433      48.731617      2.3577398     -150421.49     -147705.11    
     10300   1066.7623      26313.37       6724.9433      48.731617      2.3577398     -150323.79     -147799.01    
     10400   1072.0958      18323.256      6724.9433      48.731617      2.3577398     -150456.68     -147919.28    
     10500   1077.5736      8786.7654      6724.9433      48.731617      2.3577398     -150473.13     -147922.77    
     10600   1072.2548      22744.411      6724.9433      48.731617      2.3577398     -150281.63     -147743.85    
     10700   1126.5352      19409.529      6724.9433      48.731617      2.3577398     -150323.65     -147657.4     
     10800   1165.8532     -8540.3631      6724.9433      48.731617      2.3577398     -150472.73     -147713.43    
     10900   1105.1038     -36722.201      6724.9433      48.731617      2.3577398     -150444.84     -147829.32    
     11000   1113.5666     -35203.648      6724.9433      48.731617      2.3577398     -150511.51     -147875.96    
     11100   1101.7105      33210.247      6724.9433      48.731617      2.3577398     -150483.64     -147876.15    
     11200   1087.4247      51353.731      6724.9433      48.731617      2.3577398     -150396.29     -147822.62    
     11300   1095.8197      4985.6065      6724.9433      48.731617      2.3577398     -150392.82     -147799.28    
     11400   1123.1504      7856.2722      6724.9433      48.731617      2.3577398     -150444.54     -147786.3     
     11500   1097.2351      8915.8827      6724.9433      48.731617      2.3577398     -150320.74     -147723.85    
     11600   1155.6172      18105.796      6724.9433      48.731617      2.3577398     -150333.95     -147598.88    
     11700   1187.2888      34687.965      6724.9433      48.731617      2.3577398     -150358.7      -147548.67    
     11800   1072.7074      34980.138      6724.9433      48.731617      2.3577398     -150241.37     -147702.52    
     11900   1117.5183      97777.479      6724.9433      48.731617      2.3577398     -150443.65     -147798.74    
     12000   1122.9409     -1974.4345      6724.9433      48.731617      2.3577398     -150509.23     -147851.49    
     12100   1118.0108     -35275.055      6724.9433      48.731617      2.3577398     -150485.29     -147839.22    
     12200   1173.6148     -68450.351      6724.9433      48.731617      2.3577398     -150461.31     -147683.64    
     12300   1136.0885      40472.58       6724.9433      48.731617      2.3577398     -150271.12     -147582.27    
     12400   1115.5664      61534.605      6724.9433      48.731617      2.3577398     -150350.82     -147710.54    
     12500   1073.3781      10682.801      6724.9433      48.731617      2.3577398     -150317.35     -147776.92    
     12600   1120.2322      34265.215      6724.9433      48.731617      2.3577398     -150421.95     -147770.63    
     12700   1105.7928      20554.988      6724.9433      48.731617      2.3577398     -150381.74     -147764.59    
     12800   1105.0036      35203.025      6724.9433      48.731617      2.3577398     -150379.97     -147764.69    
     12900   1086.6072      55700.957      6724.9433      48.731617      2.3577398     -150392.59     -147820.85    
     13000   1066.5985     -25868.869      6724.9433      48.731617      2.3577398     -150518.97     -147994.59    
     13100   1043.5637      101214.31      6724.9433      48.731617      2.3577398     -150426.74     -147956.87    
     13200   1078.4817      32736.874      6724.9433      48.731617      2.3577398     -150341.58     -147789.07    
     13300   1115.0044     -24424.032      6724.9433      48.731617      2.3577398     -150342.88     -147703.93    
     13400   1093.5752      28544.707      6724.9433      48.731617      2.3577398     -150284.51     -147696.28    
     13500   1085.4574     -19351.325      6724.9433      48.731617      2.3577398     -150370.96     -147801.94    
     13600   1093.4139      31680.993      6724.9433      48.731617      2.3577398     -150548.92     -147961.07    
     13700   1048.6975      11886.325      6724.9433      48.731617      2.3577398     -150477.29     -147995.28    
     13800   1087.1569      13260.791      6724.9433      48.731617      2.3577398     -150488.14     -147915.1     
     13900   1075.1093      40886.055      6724.9433      48.731617      2.3577398     -150394.25     -147849.72    
     14000   1067.9829     -37045.893      6724.9433      48.731617      2.3577398     -150303.14     -147775.47    
     14100   1102.8502      6328.7431      6724.9433      48.731617      2.3577398     -150315.41     -147705.23    
     14200   1121.2298      73141.578      6724.9433      48.731617      2.3577398     -150243.81     -147590.12    
     14300   1193.746       67331.208      6724.9433      48.731617      2.3577398     -150325.62     -147500.31    
     14400   1147.2508     -18570.637      6724.9433      48.731617      2.3577398     -150415.91     -147700.64    
     14500   1108.4751     -33389.063      6724.9433      48.731617      2.3577398     -150428.14     -147804.64    
     14600   1095.5604      6481.819       6724.9433      48.731617      2.3577398     -150434.87     -147841.94    
     14700   1108.9987      20003.261      6724.9433      48.731617      2.3577398     -150409.41     -147784.67    
     14800   1138.0578     -3873.8034      6724.9433      48.731617      2.3577398     -150326.55     -147633.04    
     14900   1148.6646     -25147.565      6724.9433      48.731617      2.3577398     -150330.52     -147611.9     
     15000   1080.1711      49952.706      6724.9433      48.731617      2.3577398     -150401.31     -147844.8     
     15100   1079.0345      14673.806      6724.9433      48.731617      2.3577398     -150436.56     -147882.74    
     15200   1088.6135      26889.548      6724.9433      48.731617      2.3577398     -150414.17     -147837.68    
     15300   1124.9585      7290.3231      6724.9433      48.731617      2.3577398     -150376.6      -147714.09    
     15400   1100.3731     -6859.6337      6724.9433      48.731617      2.3577398     -150256.28     -147651.95    
     15500   1099.0234     -41250.472      6724.9433      48.731617      2.3577398     -150366.24     -147765.11    
     15600   1047.5805      57676.116      6724.9433      48.731617      2.3577398     -150411.34     -147931.96    
     15700   1096.1995      76028.753      6724.9433      48.731617      2.3577398     -150485.57     -147891.12    
     15800   1083.4458      1449.2519      6724.9433      48.731617      2.3577398     -150337.51     -147773.25    
     15900   1141.829       43117.408      6724.9433      48.731617      2.3577398     -150423.58     -147721.14    
     16000   1143.5505     -25969.065      6724.9433      48.731617      2.3577398     -150453.87     -147747.36    
     16100   1106.2788     -60595.393      6724.9433      48.731617      2.3577398     -150429.27     -147810.97    
     16200   1117.4611      108439.08      6724.9433      48.731617      2.3577398     -150499.27     -147854.51    
     16300   1100.1712      64081.766      6724.9433      48.731617      2.3577398     -150458.75     -147854.91    
     16400   1098.6775      50310.64       6724.9433      48.731617      2.3577398     -150299.36     -147699.05    
     16500   1133.6458     -52200.91       6724.9433      48.731617      2.3577398     -150282        -147598.93    
     16600   1122.2994     -33897.785      6724.9433      48.731617      2.3577398     -150333.57     -147677.35    
     16700   1122.3505      35512.716      6724.9433      48.731617      2.3577398     -150505.94     -147849.6     
     16800   1072.5058      15058.481      6724.9433      48.731617      2.3577398     -150428.08     -147889.71    
     16900   1097.8497      29657.143      6724.9433      48.731617      2.3577398     -150370.38     -147772.03    
     17000   1075.4552      12840.228      6724.9433      48.731617      2.3577398     -150227.21     -147681.87    
     17100   1140.2656     -3555.3855      6724.9433      48.731617      2.3577398     -150372.72     -147673.98    
     17200   1173.1861      39921.732      6724.9433      48.731617      2.3577398     -150527.3      -147750.65    
     17300   1096.6262      44554.357      6724.9433      48.731617      2.3577398     -150437.52     -147842.07    
     17400   1066.9432      31536.406      6724.9433      48.731617      2.3577398     -150373.22     -147848.02    
     17500   1100.5163      68080.026      6724.9433      48.731617      2.3577398     -150388.26     -147783.6     
     17600   1094.4623      37037.346      6724.9433      48.731617      2.3577398     -150262.84     -147672.51    
     17700   1114.1069      45414.418      6724.9433      48.731617      2.3577398     -150249.8      -147612.97    
     17800   1077.336      -14275.884      6724.9433      48.731617      2.3577398     -150363.61     -147813.81    
     17900   1086.2427     -47415.628      6724.9433      48.731617      2.3577398     -150473.26     -147902.38    
     18000   1044.5005     -53527.836      6724.9433      48.731617      2.3577398     -150378.37     -147906.28    
     18100   1074.2703     -8081.4314      6724.9433      48.731617      2.3577398     -150330.33     -147787.79    
     18200   1161.0784      77985.68       6724.9433      48.731617      2.3577398     -150421.12     -147673.12    
     18300   1098.9816      10805.658      6724.9433      48.731617      2.3577398     -150312.05     -147711.02    
     18400   1089.4789      46855.943      6724.9433      48.731617      2.3577398     -150366.08     -147787.54    
     18500   1044.2583      25639.161      6724.9433      48.731617      2.3577398     -150500.68     -148029.17    
     18600   1040.2351      39525.84       6724.9433      48.731617      2.3577398     -150496.06     -148034.07    
     18700   1100.848       57217.066      6724.9433      48.731617      2.3577398     -150474.38     -147868.94    
     18800   1098.4369      53321.08       6724.9433      48.731617      2.3577398     -150389.89     -147790.15    
     18900   1122.8408     -2424.8233      6724.9433      48.731617      2.3577398     -150395.32     -147737.82    
     19000   1153.4095      62027.889      6724.9433      48.731617      2.3577398     -150433.82     -147703.98    
     19100   1142.3952     -19679.381      6724.9433      48.731617      2.3577398     -150412.18     -147708.4     
     19200   1097.7905      585.87556      6724.9433      48.731617      2.3577398     -150438.26     -147840.05    
     19300   1092.8291      96249.472      6724.9433      48.731617      2.3577398     -150476.86     -147890.39    
     19400   1065.9315     -2970.7803      6724.9433      48.731617      2.3577398     -150335.98     -147813.17    
     19500   1090.7441      85189.777      6724.9433      48.731617      2.3577398     -150232.81     -147651.27    
     19600   1107.6032     -9427.7309      6724.9433      48.731617      2.3577398     -150292.69     -147671.26    
     19700   1156.2382      10069.484      6724.9433      48.731617      2.3577398     -150496.81     -147760.27    
     19800   1110.4359      34759.451      6724.9433      48.731617      2.3577398     -150480.34     -147852.2     
     19900   1076.7623     -35314.241      6724.9433      48.731617      2.3577398     -150412.77     -147864.33    
     20000   1079.2384      70958.947      6724.9433      48.731617      2.3577398     -150372.59     -147818.29    
     20100   1119.0287      10757.269      6724.9433      48.731617      2.3577398     -150361.33     -147712.85    
     20200   1172.848       9365.7317      6724.9433      48.731617      2.3577398     -150325.2      -147549.34    
     20300   1132.8891     -10705.116      6724.9433      48.731617      2.3577398     -150328.15     -147646.87    
     20400   1101.5208     -41207.566      6724.9433      48.731617      2.3577398     -150395.75     -147788.72    
     20500   1127.2992      76484.126      6724.9433      48.731617      2.3577398     -150461.23     -147793.18    
     20600   1062.9622      2141.9103      6724.9433      48.731617      2.3577398     -150364.6      -147848.82    
     20700   1087.371      -5072.2864      6724.9433      48.731617      2.3577398     -150390.52     -147816.97    
     20800   1148.3481      15880.701      6724.9433      48.731617      2.3577398     -150396.78     -147678.92    
     20900   1138.3405      40640.074      6724.9433      48.731617      2.3577398     -150315.28     -147621.09    
     21000   1089.4693      56180.044      6724.9433      48.731617      2.3577398     -150301.28     -147722.76    
     21100   1076.6158      84402.834      6724.9433      48.731617      2.3577398     -150448.19     -147900.09    
     21200   1072.5401     -30998.706      6724.9433      48.731617      2.3577398     -150433        -147894.55    
     21300   1125.0279     -60957.051      6724.9433      48.731617      2.3577398     -150442.73     -147780.05    
     21400   1168.7856     -6604.8911      6724.9433      48.731617      2.3577398     -150441.71     -147675.47    
     21500   1139.7682     -7782.4386      6724.9433      48.731617      2.3577398     -150400.07     -147702.51    
     21600   1044.8856      4203.8379      6724.9433      48.731617      2.3577398     -150421.57     -147948.57    
     21700   1062.6444     -6967.5871      6724.9433      48.731617      2.3577398     -150452.47     -147937.44    
     21800   1130.5086      62573.648      6724.9433      48.731617      2.3577398     -150478.47     -147802.82    
     21900   1096.4134     -11473.242      6724.9433      48.731617      2.3577398     -150306.74     -147711.79    
     22000   1087.7789      1961.7642      6724.9433      48.731617      2.3577398     -150292.53     -147718.01    
     22100   1094.7146      63521.278      6724.9433      48.731617      2.3577398     -150374.68     -147783.75    
     22200   1045.4751     -20549.293      6724.9433      48.731617      2.3577398     -150437.15     -147962.76    
     22300   1075.5644      14348.908      6724.9433      48.731617      2.3577398     -150507.27     -147961.67    
     22400   1084.7058      988.24512      6724.9433      48.731617      2.3577398     -150373.97     -147806.73    
     22500   1133.337       53975.159      6724.9433      48.731617      2.3577398     -150435.12     -147752.78    
     22600   1089.7411      6043.7537      6724.9433      48.731617      2.3577398     -150365.06     -147785.9     
     22700   1072.3401      33915.549      6724.9433      48.731617      2.3577398     -150317.34     -147779.36    
     22800   1120.3396      59316.071      6724.9433      48.731617      2.3577398     -150309.41     -147657.83    
     22900   1166.2274     -26130.621      6724.9433      48.731617      2.3577398     -150315.21     -147555.02    
     23000   1117.7146     -23598.478      6724.9433      48.731617      2.3577398     -150337.53     -147692.16    
     23100   1117.1468      36551.552      6724.9433      48.731617      2.3577398     -150435.43     -147791.41    
     23200   1119.0843      54141.759      6724.9433      48.731617      2.3577398     -150452.93     -147804.32    
     23300   1121.0315     -38572.841      6724.9433      48.731617      2.3577398     -150440.71     -147787.49    
     23400   1083.5534      44957.071      6724.9433      48.731617      2.3577398     -150243.96     -147679.44    
     23500   1145.6959      16377.866      6724.9433      48.731617      2.3577398     -150230.61     -147519.01    
     23600   1131.1502      3074.4402      6724.9433      48.731617      2.3577398     -150269.49     -147592.33    
     23700   1136.5051     -3764.2311      6724.9433      48.731617      2.3577398     -150398.52     -147708.68    
     23800   1098.2707     -19411.742      6724.9433      48.731617      2.3577398     -150359.28     -147759.93    
     23900   1106.2418      10363.057      6724.9433      48.731617      2.3577398     -150439.44     -147821.23    
     24000   1075.9139      10100.829      6724.9433      48.731617      2.3577398     -150462.9      -147916.46    
     24100   1062.0225      48112.077      6724.9433      48.731617      2.3577398     -150440.82     -147927.26    
     24200   1127.3162      28143.536      6724.9433      48.731617      2.3577398     -150395.36     -147727.27    
     24300   1144.8175     -12748.663      6724.9433      48.731617      2.3577398     -150388.75     -147679.24    
     24400   1114.0725      46634.353      6724.9433      48.731617      2.3577398     -150384.86     -147748.12    
     24500   1066.6429      20935.215      6724.9433      48.731617      2.3577398     -150418.29     -147893.8     
     24600   1094.1655      81120.821      6724.9433      48.731617      2.3577398     -150546.42     -147956.79    
     24700   1067.7826     -21590.16       6724.9433      48.731617      2.3577398     -150438.97     -147911.78    
     24800   1090.4461      22450.533      6724.9433      48.731617      2.3577398     -150419.78     -147838.96    
     24900   1108.4928      40521.317      6724.9433      48.731617      2.3577398     -150417.81     -147794.27    
     25000   1051.1307      2453.0633      6724.9433      48.731617      2.3577398     -150258.92     -147771.14    
     25100   1098.5944      47805.375      6724.9433      48.731617      2.3577398     -150284.26     -147684.15    
     25200   1162.0464      18082.829      6724.9433      48.731617      2.3577398     -150318.02     -147567.73    
     25300   1148.2241      14542.03       6724.9433      48.731617      2.3577398     -150283.8      -147566.23    
     25400   1118.3705     -16009.995      6724.9433      48.731617      2.3577398     -150443.24     -147796.32    
     25500   1100.2686      19476.45       6724.9433      48.731617      2.3577398     -150467.19     -147863.12    
     25600   1118.9629      74148.297      6724.9433      48.731617      2.3577398     -150463.01     -147814.69    
     25700   1109.5337      8375.8897      6724.9433      48.731617      2.3577398     -150293.64     -147667.64    
     25800   1115.0624      15355.621      6724.9433      48.731617      2.3577398     -150259.13     -147620.04    
     25900   1101.7259      33545.256      6724.9433      48.731617      2.3577398     -150290.21     -147682.68    
     26000   1086.8256     -27160.255      6724.9433      48.731617      2.3577398     -150342.42     -147770.16    
     26100   1091.3257     -9212.2709      6724.9433      48.731617      2.3577398     -150366.38     -147783.47    
     26200   1106.2698     -2933.935       6724.9433      48.731617      2.3577398     -150379.94     -147761.66    
     26300   1133.2088      80478.643      6724.9433      48.731617      2.3577398     -150448        -147765.96    
     26400   1131.3792      44360.561      6724.9433      48.731617      2.3577398     -150537.26     -147859.56    
     26500   1061.4027      44456.591      6724.9433      48.731617      2.3577398     -150494.16     -147982.07    
     26600   1104.3883      14468.102      6724.9433      48.731617      2.3577398     -150534.16     -147920.34    
     26700   1115.1692      8102.9119      6724.9433      48.731617      2.3577398     -150345.4      -147706.06    
     26800   1110.4768      344.93324      6724.9433      48.731617      2.3577398     -150294.25     -147666.01    
     26900   1107.2278      60409.982      6724.9433      48.731617      2.3577398     -150319.42     -147698.88    
     27000   1113.2224      15770.708      6724.9433      48.731617      2.3577398     -150451.8      -147817.07    
     27100   1082.6251      54651.51       6724.9433      48.731617      2.3577398     -150509.52     -147947.2     
     27200   1018.962      -22550.278      6724.9433      48.731617      2.3577398     -150338.98     -147927.34    
     27300   1121.483       17207.347      6724.9433      48.731617      2.3577398     -150475.77     -147821.49    
     27400   1084.671       27041.226      6724.9433      48.731617      2.3577398     -150341.36     -147774.2     
     27500   1151.009       6431.269       6724.9433      48.731617      2.3577398     -150421.91     -147697.75    
     27600   1094.9651      10261.593      6724.9433      48.731617      2.3577398     -150216.93     -147625.41    
     27700   1154.2763     -363.66272      6724.9433      48.731617      2.3577398     -150245.48     -147513.59    
     27800   1137.0618      31130.874      6724.9433      48.731617      2.3577398     -150309.41     -147618.25    
     27900   1096.9303      43788.581      6724.9433      48.731617      2.3577398     -150375.83     -147779.66    
     28000   1088.1468     -11214.336      6724.9433      48.731617      2.3577398     -150374.64     -147799.26    
     28100   1086.7386      6345.6711      6724.9433      48.731617      2.3577398     -150417.58     -147845.52    
     28200   1075.2528      5864.3854      6724.9433      48.731617      2.3577398     -150490.28     -147945.41    
     28300   1055.2373      58827.509      6724.9433      48.731617      2.3577398     -150508.04     -148010.55    
     28400   1102.3372     -2573.0782      6724.9433      48.731617      2.3577398     -150462.55     -147853.57    
     28500   1136.2552     -34700.94       6724.9433      48.731617      2.3577398     -150401.79     -147712.54    
     28600   1115.1618      71850.942      6724.9433      48.731617      2.3577398     -150368.72     -147729.39    
     28700   1059.6274      19082.17       6724.9433      48.731617      2.3577398     -150346.66     -147838.78    
     28800   1105.3486      22789.472      6724.9433      48.731617      2.3577398     -150504.5      -147888.41    
     28900   1105.7272      981.9768       6724.9433      48.731617      2.3577398     -150441.78     -147824.79    
     29000   1105.0971     -22130.803      6724.9433      48.731617      2.3577398     -150261.55     -147646.05    
     29100   1185.4951      34065.498      6724.9433      48.731617      2.3577398     -150469.9      -147664.12    
     29200   1088.6939      210.46275      6724.9433      48.731617      2.3577398     -150379.03     -147802.35    
     29300   1100.1299      7202.0147      6724.9433      48.731617      2.3577398     -150430.47     -147826.73    
     29400   1068.8027      54953.167      6724.9433      48.731617      2.3577398     -150330.73     -147801.13    
     29500   1044.3656      5506.4073      6724.9433      48.731617      2.3577398     -150248        -147776.24    
     29600   1126.4546      4600.3599      6724.9433      48.731617      2.3577398     -150428.95     -147762.9     
     29700   1056.4595     -22483.796      6724.9433      48.731617      2.3577398     -150385.71     -147885.32    
     29800   1030.7864     -1929.5463      6724.9433      48.731617      2.3577398     -150492.5      -148052.88    
     29900   1040.5305      35072.846      6724.9433      48.731617      2.3577398     -150426.19     -147963.51    
     30000   1095.2065      32046.231      6724.9433      48.731617      2.3577398     -150374.51     -147782.41    
     30100   1101.7449     -4055.6777      6724.9433      48.731617      2.3577398     -150321.88     -147714.31    
     30200   1132.5818      1589.6646      6724.9433      48.731617      2.3577398     -150425.49     -147744.94    
     30300   1044.0503      29620.381      6724.9433      48.731617      2.3577398     -150353.17     -147882.15    
     30400   1050.1179     -32947.537      6724.9433      48.731617      2.3577398     -150459.03     -147973.65    
     30500   1074.6789      104003.33      6724.9433      48.731617      2.3577398     -150446.11     -147902.6     
     30600   1051.458       18823.529      6724.9433      48.731617      2.3577398     -150327.02     -147838.47    
     30700   1088.5561      15822.935      6724.9433      48.731617      2.3577398     -150370.78     -147794.42    
     30800   1099.1641     -7114.5519      6724.9433      48.731617      2.3577398     -150387.81     -147786.35    
     30900   1086.3259      38692.151      6724.9433      48.731617      2.3577398     -150333.14     -147762.06    
     31000   1119.4558     -10853.123      6724.9433      48.731617      2.3577398     -150375.77     -147726.29    
     31100   1141.4593      43883.674      6724.9433      48.731617      2.3577398     -150446.47     -147744.9     
     31200   1074.9568      44725.739      6724.9433      48.731617      2.3577398     -150337.63     -147793.46    
     31300   1142.1978     -7307.9332      6724.9433      48.731617      2.3577398     -150534.04     -147830.73    
     31400   1075.4221     -33112.729      6724.9433      48.731617      2.3577398     -150470.29     -147925.02    
     31500   1058.0536     -714.09645      6724.9433      48.731617      2.3577398     -150455.72     -147951.56    
     31600   1077.1474     -10627.303      6724.9433      48.731617      2.3577398     -150308.69     -147759.33    
     31700   1104.1274      43928.088      6724.9433      48.731617      2.3577398     -150291.11     -147677.9     
     31800   1078.4404      51078.093      6724.9433      48.731617      2.3577398     -150288.06     -147735.64    
     31900   1086.7634     -21201.611      6724.9433      48.731617      2.3577398     -150430.3      -147858.19    
     32000   1102.3107      2141.9604      6724.9433      48.731617      2.3577398     -150505.13     -147896.22    
     32100   1111.0153      15571.738      6724.9433      48.731617      2.3577398     -150414.58     -147785.07    
     32200   1142.296       27965.198      6724.9433      48.731617      2.3577398     -150274.24     -147570.7     
     32300   1154.0242      55798.943      6724.9433      48.731617      2.3577398     -150353.12     -147621.82    
     32400   1072.0461     -40925.074      6724.9433      48.731617      2.3577398     -150335.66     -147798.38    
     32500   1110.5856      24093.196      6724.9433      48.731617      2.3577398     -150479.54     -147851.05    
     32600   1118.966       92649.237      6724.9433      48.731617      2.3577398     -150447.7      -147799.37    
     32700   1108.604       21.351455      6724.9433      48.731617      2.3577398     -150276.76     -147652.95    
     32800   1139.1179      44481.373      6724.9433      48.731617      2.3577398     -150256.71     -147560.68    
     32900   1131.8282      1697.3551      6724.9433      48.731617      2.3577398     -150318.57     -147639.8     
     33000   1112.7182      31592.356      6724.9433      48.731617      2.3577398     -150350.68     -147717.14    
     33100   1085.8102      13757.075      6724.9433      48.731617      2.3577398     -150367.78     -147797.92    
     33200   1056.6053      14045.34       6724.9433      48.731617      2.3577398     -150354.34     -147853.6     
     33300   1114.3486      14526.271      6724.9433      48.731617      2.3577398     -150486.91     -147849.51    
     33400   1113.8902      37848.292      6724.9433      48.731617      2.3577398     -150441.66     -147805.35    
     33500   1069.4621     -3896.4521      6724.9433      48.731617      2.3577398     -150254.2      -147723.04    
     33600   1156.1498      52413.658      6724.9433      48.731617      2.3577398     -150367.02     -147630.69    
     33700   1081.3206      33086.204      6724.9433      48.731617      2.3577398     -150288.8      -147729.57    
     33800   1061.6877      1064.6903      6724.9433      48.731617      2.3577398     -150422.95     -147910.19    
     33900   1044.1267      64755.832      6724.9433      48.731617      2.3577398     -150389.15     -147917.95    
     34000   1131.3278      16648.097      6724.9433      48.731617      2.3577398     -150504.28     -147826.69    
     34100   1067.478      -32385.77       6724.9433      48.731617      2.3577398     -150278.38     -147751.91    
     34200   1116.3733      8525.2839      6724.9433      48.731617      2.3577398     -150307.92     -147665.73    
     34300   1144.4201      5362.6247      6724.9433      48.731617      2.3577398     -150343.81     -147635.24    
     34400   1088.6766      38694.372      6724.9433      48.731617      2.3577398     -150369.05     -147792.41    
     34500   1066.558       33278.613      6724.9433      48.731617      2.3577398     -150429.63     -147905.34    
     34600   1104.2137     -17569.839      6724.9433      48.731617      2.3577398     -150459.26     -147845.84    
     34700   1108.7907     -589.33805      6724.9433      48.731617      2.3577398     -150341.21     -147716.97    
     34800   1130.3257      41529.381      6724.9433      48.731617      2.3577398     -150337.95     -147662.73    
     34900   1143.7981      57758.675      6724.9433      48.731617      2.3577398     -150405.22     -147698.12    
     35000   1074.8336      47132.847      6724.9433      48.731617      2.3577398     -150407.91     -147864.03    
     35100   1071.7308      6064.4507      6724.9433      48.731617      2.3577398     -150443.47     -147906.94    
     35200   1102.0137      13803.239      6724.9433      48.731617      2.3577398     -150418.36     -147810.15    
     35300   1108.337       9933.1019      6724.9433      48.731617      2.3577398     -150300.03     -147676.86    
     35400   1148.9336      80274.933      6724.9433      48.731617      2.3577398     -150406.95     -147687.7     
     35500   1099.4659      43672.94       6724.9433      48.731617      2.3577398     -150420.12     -147817.95    
     35600   1053.2702     -22220.183      6724.9433      48.731617      2.3577398     -150321.88     -147829.04    
     35700   1125.8015      30728.218      6724.9433      48.731617      2.3577398     -150400.28     -147735.77    
     35800   1161.1952     -2921.9224      6724.9433      48.731617      2.3577398     -150437.67     -147689.4     
     35900   1061.557       23734.453      6724.9433      48.731617      2.3577398     -150298.11     -147785.66    
     36000   1038.2505     -42460.588      6724.9433      48.731617      2.3577398     -150393.71     -147936.42    
     36100   1077.4284      32723.748      6724.9433      48.731617      2.3577398     -150481.29     -147931.28    
     36200   1055.307       10406.264      6724.9433      48.731617      2.3577398     -150336.88     -147839.22    
     36300   1111.2481      18042.044      6724.9433      48.731617      2.3577398     -150404.44     -147774.38    
     36400   1083.4759      13095.432      6724.9433      48.731617      2.3577398     -150298.5      -147734.17    
     36500   1077.8091      14200.325      6724.9433      48.731617      2.3577398     -150314.87     -147763.95    
     36600   1086.8294      54799.287      6724.9433      48.731617      2.3577398     -150419.29     -147847.02    
     36700   1033.7346      9337.4718      6724.9433      48.731617      2.3577398     -150402.35     -147955.74    
     36800   1075.7452      1564.4677      6724.9433      48.731617      2.3577398     -150431.89     -147885.85    
     36900   1110.5451     -6304.3287      6724.9433      48.731617      2.3577398     -150307.12     -147678.72    
     37000   1109.7286      35485.371      6724.9433      48.731617      2.3577398     -150290.81     -147664.34    
     37100   1111.6751      23183.4        6724.9433      48.731617      2.3577398     -150388.32     -147757.25    
     37200   1089.1379     -1751.0338      6724.9433      48.731617      2.3577398     -150464.15     -147886.42    
     37300   1078.003      -24330.734      6724.9433      48.731617      2.3577398     -150443.31     -147891.93    
     37400   1117.8782     -31551.181      6724.9433      48.731617      2.3577398     -150477.77     -147832.02    
     37500   1109.7183      33535.611      6724.9433      48.731617      2.3577398     -150413.69     -147787.25    
     37600   1091.4446      47096.817      6724.9433      48.731617      2.3577398     -150351.48     -147768.29    
     37700   1107.6933      3555.4432      6724.9433      48.731617      2.3577398     -150369.52     -147747.87    
     37800   1141.0292      45436.223      6724.9433      48.731617      2.3577398     -150456.89     -147756.34    
     37900   1104.9773      3288.092       6724.9433      48.731617      2.3577398     -150393.4      -147778.18    
     38000   1107.9927     -29761.329      6724.9433      48.731617      2.3577398     -150411.11     -147788.76    
     38100   1052.2584     -16492.272      6724.9433      48.731617      2.3577398     -150312.76     -147822.32    
     38200   1162.4116      70001.753      6724.9433      48.731617      2.3577398     -150560.33     -147809.17    
     38300   1104.7585     -17216.061      6724.9433      48.731617      2.3577398     -150458.99     -147844.29    
     38400   1073.4625     -47554.959      6724.9433      48.731617      2.3577398     -150467.99     -147927.36    
     38500   1071.8644      33005.098      6724.9433      48.731617      2.3577398     -150493.93     -147957.08    
     38600   1110.3473      70739.191      6724.9433      48.731617      2.3577398     -150401.87     -147773.94    
     38700   1081.0056      10839.289      6724.9433      48.731617      2.3577398     -150237.96     -147679.47    
     38800   1137.6602      48083.968      6724.9433      48.731617      2.3577398     -150402.35     -147709.78    
     38900   1106.5387      22512.552      6724.9433      48.731617      2.3577398     -150451.99     -147833.08    
     39000   1108.8799     -2216.9406      6724.9433      48.731617      2.3577398     -150505.02     -147880.57    
     39100   1131.0424      89699.699      6724.9433      48.731617      2.3577398     -150430.52     -147753.61    
     39200   1153.562       33600.56       6724.9433      48.731617      2.3577398     -150297.4      -147567.19    
     39300   1125.3179      36879.89       6724.9433      48.731617      2.3577398     -150285.1      -147621.74    
     39400   1057.2489     -8615.344       6724.9433      48.731617      2.3577398     -150293.97     -147791.72    
     39500   1089.7148     -33549.519      6724.9433      48.731617      2.3577398     -150437.33     -147858.23    
     39600   1082.0181     -359.61696      6724.9433      48.731617      2.3577398     -150413.14     -147852.26    
     39700   1067.7121      718.77255      6724.9433      48.731617      2.3577398     -150307.66     -147780.64    
     39800   1132.1206     -39690.062      6724.9433      48.731617      2.3577398     -150288.03     -147608.57    
     39900   1175.3062      88443.579      6724.9433      48.731617      2.3577398     -150328.17     -147546.5     
     40000   1112.6513      11981.488      6724.9433      48.731617      2.3577398     -150324.1      -147690.72    
     40100   1063.1116     -8304.5569      6724.9433      48.731617      2.3577398     -150314.39     -147798.26    
     40200   1096.1538     -5174.4535      6724.9433      48.731617      2.3577398     -150421.57     -147827.23    
     40300   1050.4376     -20465.928      6724.9433      48.731617      2.3577398     -150339.08     -147852.95    
     40400   1118.5743      81444.442      6724.9433      48.731617      2.3577398     -150408.42     -147761.02    
     40500   1124.2077     -6537.5532      6724.9433      48.731617      2.3577398     -150256.42     -147595.69    
     40600   1128.3703      7955.2342      6724.9433      48.731617      2.3577398     -150312.23     -147641.65    
     40700   1123.5709     -30639.932      6724.9433      48.731617      2.3577398     -150415.87     -147756.64    
     40800   1072.4553     -38035.733      6724.9433      48.731617      2.3577398     -150357.62     -147819.37    
     40900   1089.0276     -17002.169      6724.9433      48.731617      2.3577398     -150394.72     -147817.25    
     41000   1118.8098     -101.11321      6724.9433      48.731617      2.3577398     -150389.73     -147741.77    
     41100   1103.4043      27430.953      6724.9433      48.731617      2.3577398     -150315        -147703.5     
     41200   1099.0439      1105.4977      6724.9433      48.731617      2.3577398     -150368.95     -147767.78    
     41300   1057.3272      11355.375      6724.9433      48.731617      2.3577398     -150392.51     -147890.06    
     41400   1010.7605      11151.52       6724.9433      48.731617      2.3577398     -150331.9      -147939.67    
     41500   1097.225       20860.322      6724.9433      48.731617      2.3577398     -150408.9      -147812.03    
     41600   1113.1054      10189.774      6724.9433      48.731617      2.3577398     -150304.75     -147670.29    
     41700   1105.7383      40881.764      6724.9433      48.731617      2.3577398     -150331.06     -147714.04    
     41800   1107.0373     -724.43096      6724.9433      48.731617      2.3577398     -150406.54     -147786.44    
     41900   1037.2633     -26698.703      6724.9433      48.731617      2.3577398     -150315.54     -147860.59    
     42000   1062.2387      35732.784      6724.9433      48.731617      2.3577398     -150478.93     -147964.87    
     42100   1036.0852      6714.3181      6724.9433      48.731617      2.3577398     -150549.69     -148097.52    
     42200   1052.0842      26745.163      6724.9433      48.731617      2.3577398     -150455.93     -147965.89    
     42300   1095.5601     -12717.472      6724.9433      48.731617      2.3577398     -150429.31     -147836.38    
     42400   1079.8423      86138.874      6724.9433      48.731617      2.3577398     -150321.07     -147765.34    
     42500   1137.9077     -11435.69       6724.9433      48.731617      2.3577398     -150395.69     -147702.53    
     42600   1077.8146     -56558.795      6724.9433      48.731617      2.3577398     -150234.06     -147683.13    
     42700   1122.757       45035.12       6724.9433      48.731617      2.3577398     -150465.29     -147807.99    
     42800   1025.4877     -30660.746      6724.9433      48.731617      2.3577398     -150394.66     -147967.58    
     42900   1106.8748      89466.887      6724.9433      48.731617      2.3577398     -150559.86     -147940.15    
     43000   1095.563      -26852.555      6724.9433      48.731617      2.3577398     -150402.13     -147809.19    
     43100   1108.0119      22900.315      6724.9433      48.731617      2.3577398     -150321.62     -147699.22    
     43200   1125.3587      18462.558      6724.9433      48.731617      2.3577398     -150377.82     -147714.36    
     43300   1106.3696      38641.274      6724.9433      48.731617      2.3577398     -150410.01     -147791.49    
     43400   1089.8111      47345.337      6724.9433      48.731617      2.3577398     -150455        -147875.67    
     43500   1051.9016      62961.611      6724.9433      48.731617      2.3577398     -150445.6      -147955.99    
     43600   1053.6273     -37684.051      6724.9433      48.731617      2.3577398     -150490.39     -147996.71    
     43700   1030.5813      24118.058      6724.9433      48.731617      2.3577398     -150273.83     -147834.69    
     43800   1147.9034      40410.038      6724.9433      48.731617      2.3577398     -150437        -147720.18    
     43900   1122.0995      11316.029      6724.9433      48.731617      2.3577398     -150397.55     -147741.81    
     44000   1114.9473      21091.937      6724.9433      48.731617      2.3577398     -150469.96     -147831.14    
     44100   1041.5964      60909.665      6724.9433      48.731617      2.3577398     -150475.09     -148009.88    
     44200   1055.8304      45229.178      6724.9433      48.731617      2.3577398     -150556.38     -148057.48    
     44300   1057.0003      27326.144      6724.9433      48.731617      2.3577398     -150445.37     -147943.7     
     44400   1073.2545      9690.0298      6724.9433      48.731617      2.3577398     -150423.63     -147883.49    
     44500   1113.5846      602.79918      6724.9433      48.731617      2.3577398     -150456.31     -147820.71    
     44600   1098.9212      14233.776      6724.9433      48.731617      2.3577398     -150381.31     -147780.43    
     44700   1099.6076     -34316.307      6724.9433      48.731617      2.3577398     -150351.26     -147748.75    
     44800   1105.1697      24001.859      6724.9433      48.731617      2.3577398     -150379.88     -147764.2     
     44900   1079.5411      19132.631      6724.9433      48.731617      2.3577398     -150440.54     -147885.52    
     45000   1037.663      -1941.9078      6724.9433      48.731617      2.3577398     -150421.43     -147965.53    
     45100   1136.2487      65564.56       6724.9433      48.731617      2.3577398     -150517.45     -147828.22    
     45200   1128.7219      30656.035      6724.9433      48.731617      2.3577398     -150385.47     -147714.05    
     45300   1137.3009      45855.885      6724.9433      48.731617      2.3577398     -150406.59     -147714.87    
     45400   1102.5164     -81806.986      6724.9433      48.731617      2.3577398     -150385.02     -147775.63    
     45500   1084.1193      17396.308      6724.9433      48.731617      2.3577398     -150424.97     -147859.11    
     45600   1066.8863      22707.65       6724.9433      48.731617      2.3577398     -150570.07     -148045       
     45700   1002.3565      36054.828      6724.9433      48.731617      2.3577398     -150411.9      -148039.56    
     45800   1071.817       30331.376      6724.9433      48.731617      2.3577398     -150455.38     -147918.64    
     45900   1087.9897     -11764.792      6724.9433      48.731617      2.3577398     -150387.05     -147812.03    
     46000   1129.4542     -35409.228      6724.9433      48.731617      2.3577398     -150400.21     -147727.06    
     46100   1166.3583      22395.954      6724.9433      48.731617      2.3577398     -150503.55     -147743.05    
     46200   1078.6285      1916.7185      6724.9433      48.731617      2.3577398     -150485.17     -147932.31    
     46300   1060.686      -35888.269      6724.9433      48.731617      2.3577398     -150470.96     -147960.56    
     46400   1115.9963      35510.239      6724.9433      48.731617      2.3577398     -150532.54     -147891.24    
     46500   1078.3801      8215.6955      6724.9433      48.731617      2.3577398     -150364.1      -147811.83    
     46600   1085.2113      38169.001      6724.9433      48.731617      2.3577398     -150319.59     -147751.15    
     46700   1129.0207      48036.045      6724.9433      48.731617      2.3577398     -150391.21     -147719.08    
     46800   1109.0162      19519.608      6724.9433      48.731617      2.3577398     -150381.47     -147756.7     
     46900   1114.0343      976.3142       6724.9433      48.731617      2.3577398     -150436.64     -147799.99    
     47000   1104.2628     -15302.773      6724.9433      48.731617      2.3577398     -150373.56     -147760.03    
     47100   1123.8149      25735.717      6724.9433      48.731617      2.3577398     -150234.5      -147574.7     
     47200   1141.8043     -24624.588      6724.9433      48.731617      2.3577398     -150220.1      -147517.72    
     47300   1158.4342      89663.83       6724.9433      48.731617      2.3577398     -150355.07     -147613.33    
     47400   1070.9557     -18886.85       6724.9433      48.731617      2.3577398     -150256.82     -147722.12    
     47500   1134.6927      58987.866      6724.9433      48.731617      2.3577398     -150443.48     -147757.93    
     47600   1053.0665     -51605.096      6724.9433      48.731617      2.3577398     -150332.62     -147840.26    
     47700   1119.2468     -1179.0204      6724.9433      48.731617      2.3577398     -150483.55     -147834.56    
     47800   1109.7401      43627.976      6724.9433      48.731617      2.3577398     -150481.27     -147854.78    
     47900   1094.4004      924.74563      6724.9433      48.731617      2.3577398     -150413.11     -147822.92    
     48000   1147.2156      43717.758      6724.9433      48.731617      2.3577398     -150507.22     -147792.03    
     48100   1125.2717      11148.387      6724.9433      48.731617      2.3577398     -150423.79     -147760.53    
     48200   1116.8499      32100.699      6724.9433      48.731617      2.3577398     -150363.06     -147719.74    
     48300   1062.9199      25811.007      6724.9433      48.731617      2.3577398     -150263.97     -147748.29    
     48400   1037.0305      53333.11       6724.9433      48.731617      2.3577398     -150316.84     -147862.43    
     48500   1086.6315      23532.1        6724.9433      48.731617      2.3577398     -150457.58     -147885.78    
     48600   1094.205      -87579.422      6724.9433      48.731617      2.3577398     -150423.73     -147834.01    
     48700   1092.3116      23565.524      6724.9433      48.731617      2.3577398     -150252.84     -147667.6     
     48800   1114.1904      25919.432      6724.9433      48.731617      2.3577398     -150242.97     -147605.95    
     48900   1138.4874      39520.566      6724.9433      48.731617      2.3577398     -150411.82     -147717.29    
     49000   1112.6645      8245.5729      6724.9433      48.731617      2.3577398     -150454.76     -147821.34    
     49100   1115.6286     -25654.757      6724.9433      48.731617      2.3577398     -150468.96     -147828.53    
     49200   1132.4931      47635.155      6724.9433      48.731617      2.3577398     -150486.6      -147806.25    
     49300   1078.6262     -38564.118      6724.9433      48.731617      2.3577398     -150381.92     -147829.06    
     49400   1082.768       38548.746      6724.9433      48.731617      2.3577398     -150444.27     -147881.61    
     49500   1080.939       23338.218      6724.9433      48.731617      2.3577398     -150408.04     -147849.72    
     49600   1067.4849      91701.163      6724.9433      48.731617      2.3577398     -150209.27     -147682.79    
     49700   1104.7474     -5354.87        6724.9433      48.731617      2.3577398     -150254        -147639.32    
     49800   1160.3156      48530.206      6724.9433      48.731617      2.3577398     -150465.85     -147719.66    
     49900   1070.4531     -27956.627      6724.9433      48.731617      2.3577398     -150405.98     -147872.47    
     50000   1127.6444      47692.953      6724.9433      48.731617      2.3577398     -150554.31     -147885.44    
     50100   1053.1207      33323.335      6724.9433      48.731617      2.3577398     -150349.45     -147856.96    
     50200   1108.348       79990.391      6724.9433      48.731617      2.3577398     -150330.07     -147706.87    
     50300   1123.4287      10761.237      6724.9433      48.731617      2.3577398     -150320.26     -147661.37    
     50400   1037.0873     -39200.534      6724.9433      48.731617      2.3577398     -150173        -147718.46    
     50500   1134.6095     -1294.5947      6724.9433      48.731617      2.3577398     -150422.02     -147736.66    
     50600   1076.1304     -22089.492      6724.9433      48.731617      2.3577398     -150356.73     -147809.78    
     50700   1101.3849     -8787.1694      6724.9433      48.731617      2.3577398     -150462.29     -147855.57    
     50800   1069.986       44608.477      6724.9433      48.731617      2.3577398     -150408        -147875.59    
     50900   1075.8417      50936.473      6724.9433      48.731617      2.3577398     -150394.8      -147848.54    
     51000   1121.8798      3652.9773      6724.9433      48.731617      2.3577398     -150391.53     -147736.31    
     51100   1151.5673      24206.413      6724.9433      48.731617      2.3577398     -150386.63     -147661.14    
     51200   1100.8781      14609.921      6724.9433      48.731617      2.3577398     -150351.81     -147746.3     
     51300   1070.5664      25553.295      6724.9433      48.731617      2.3577398     -150438.35     -147904.57    
     51400   1099.7775     -1405.3401      6724.9433      48.731617      2.3577398     -150527.66     -147924.75    
     51500   1070.7495      1734.2934      6724.9433      48.731617      2.3577398     -150399.27     -147865.05    
     51600   1103.2361      67396.556      6724.9433      48.731617      2.3577398     -150424.05     -147812.95    
     51700   1105.9305     -32343.943      6724.9433      48.731617      2.3577398     -150397.24     -147779.77    
     51800   1074.0877     -28687.875      6724.9433      48.731617      2.3577398     -150298.88     -147756.77    
     51900   1139.9953      15595.573      6724.9433      48.731617      2.3577398     -150431.37     -147733.27    
     52000   1079.0985      5511.522       6724.9433      48.731617      2.3577398     -150370.09     -147816.12    
     52100   1033.8851     -1848.3275      6724.9433      48.731617      2.3577398     -150346.92     -147899.96    
     52200   1078.0461     -33297.782      6724.9433      48.731617      2.3577398     -150449.41     -147897.93    
     52300   1089.6208     -38818.869      6724.9433      48.731617      2.3577398     -150339.37     -147760.49    
     52400   1142.321       11002.432      6724.9433      48.731617      2.3577398     -150361.38     -147657.78    
     52500   1113.8036      61368.394      6724.9433      48.731617      2.3577398     -150316.29     -147680.18    
     52600   1148.7898      48865.469      6724.9433      48.731617      2.3577398     -150528.9      -147809.98    
     52700   1062.8147      24351.266      6724.9433      48.731617      2.3577398     -150478.54     -147963.11    
     52800   1087.5779     -62566.486      6724.9433      48.731617      2.3577398     -150471.86     -147897.82    
     52900   1066.0714     -3112.3011      6724.9433      48.731617      2.3577398     -150284.61     -147761.47    
     53000   1078.9809      3409.0605      6724.9433      48.731617      2.3577398     -150226.19     -147672.5     
     53100   1088.4615      23529.659      6724.9433      48.731617      2.3577398     -150275.8      -147699.67    
     53200   1087.091       58256.884      6724.9433      48.731617      2.3577398     -150454.59     -147881.7     
     53300   1092.0409      60474.337      6724.9433      48.731617      2.3577398     -150538.32     -147953.72    
     53400   1071.2307     -6211.8009      6724.9433      48.731617      2.3577398     -150436.94     -147901.6     
     53500   1096.8627     -27215.455      6724.9433      48.731617      2.3577398     -150383.89     -147787.88    
     53600   1110.8354      25178.335      6724.9433      48.731617      2.3577398     -150387.61     -147758.53    
     53700   1129.9826      103407.68      6724.9433      48.731617      2.3577398     -150470.74     -147796.33    
     53800   1029.4889      41220.486      6724.9433      48.731617      2.3577398     -150343.41     -147906.85    
     53900   1060.5426      3141.9603      6724.9433      48.731617      2.3577398     -150612.33     -148102.28    
     54000   1034.1302      5879.8276      6724.9433      48.731617      2.3577398     -150534.71     -148087.17    
     54100   1086.4395      8314.5202      6724.9433      48.731617      2.3577398     -150519.32     -147947.98    
     54200   1080.67        72633.754      6724.9433      48.731617      2.3577398     -150423.64     -147865.95    
     54300   1159.6766      22165.34       6724.9433      48.731617      2.3577398     -150475.17     -147730.49    
     54400   1143.5836      17997          6724.9433      48.731617      2.3577398     -150373.74     -147667.15    
     54500   1105.6055      52737.685      6724.9433      48.731617      2.3577398     -150312.46     -147695.76    
     54600   1086.5498      47881.814      6724.9433      48.731617      2.3577398     -150448.03     -147876.42    
     54700   1071.9032      10749.112      6724.9433      48.731617      2.3577398     -150488.89     -147951.95    
     54800   1047.7432      10121.011      6724.9433      48.731617      2.3577398     -150391.7      -147911.94    
     54900   1113.1028      55345.335      6724.9433      48.731617      2.3577398     -150421.6      -147787.15    
     55000   1076.7278     -30317.266      6724.9433      48.731617      2.3577398     -150318.28     -147769.92    
     55100   1084.3868     -137.01812      6724.9433      48.731617      2.3577398     -150352.73     -147786.24    
     55200   1087.7215     -15557.937      6724.9433      48.731617      2.3577398     -150399.66     -147825.28    
     55300   1072.0324      26802.955      6724.9433      48.731617      2.3577398     -150424.97     -147887.72    
     55400   1072.4892     -44126.503      6724.9433      48.731617      2.3577398     -150498.43     -147960.1     
     55500   1058.1164     -31271.467      6724.9433      48.731617      2.3577398     -150462.98     -147958.67    
     55600   1112.4293      14753.907      6724.9433      48.731617      2.3577398     -150414.68     -147781.82    
     55700   1110.9614      37087.743      6724.9433      48.731617      2.3577398     -150324.87     -147695.49    
     55800   1139.0432     -11166.721      6724.9433      48.731617      2.3577398     -150415.4      -147719.56    
     55900   1058.4221      21888.662      6724.9433      48.731617      2.3577398     -150356        -147850.97    
     56000   1059.6479      23003.709      6724.9433      48.731617      2.3577398     -150472.51     -147964.57    
     56100   1123.3059      55999.223      6724.9433      48.731617      2.3577398     -150534.82     -147876.22    
     56200   1155.8192     -8921.635       6724.9433      48.731617      2.3577398     -150391.11     -147655.56    
     56300   1119.9284     -36671.299      6724.9433      48.731617      2.3577398     -150314.61     -147664       
     56400   1100.6991      21528.738      6724.9433      48.731617      2.3577398     -150405.78     -147800.69    
     56500   1064.0936      63421.181      6724.9433      48.731617      2.3577398     -150389.1      -147870.64    
     56600   1109.6026      21498.683      6724.9433      48.731617      2.3577398     -150486.39     -147860.22    
     56700   1142.1943     -13131.245      6724.9433      48.731617      2.3577398     -150361.37     -147658.06    
     56800   1180.0056     -32681.371      6724.9433      48.731617      2.3577398     -150370.72     -147577.93    
     56900   1097.4377      25266.429      6724.9433      48.731617      2.3577398     -150319.24     -147721.87    
     57000   1094.6155      53960.106      6724.9433      48.731617      2.3577398     -150416.67     -147825.98    
     57100   1153.2594      21495.801      6724.9433      48.731617      2.3577398     -150548.86     -147819.37    
     57200   1094.7513     -29392.247      6724.9433      48.731617      2.3577398     -150352.48     -147761.47    
     57300   1150.4219     -21287.501      6724.9433      48.731617      2.3577398     -150306.89     -147584.11    
     57400   1167.242       8334.8805      6724.9433      48.731617      2.3577398     -150334.06     -147571.48    
     57500   1112.197       55811.234      6724.9433      48.731617      2.3577398     -150430.37     -147798.06    
     57600   1100.573      -33122.886      6724.9433      48.731617      2.3577398     -150458.15     -147853.36    
     57700   1140.6883      32646.577      6724.9433      48.731617      2.3577398     -150513.11     -147813.37    
     57800   1126.5213      72204.356      6724.9433      48.731617      2.3577398     -150415.2      -147748.99    
     57900   1150.5049      25659.34       6724.9433      48.731617      2.3577398     -150343.16     -147620.19    
     58000   1131.982       53354.742      6724.9433      48.731617      2.3577398     -150284.19     -147605.06    
     58100   1094.9902      35809.936      6724.9433      48.731617      2.3577398     -150422.39     -147830.8     
     58200   1067.4554     -18812.315      6724.9433      48.731617      2.3577398     -150398.52     -147872.11    
     58300   1130.4352      43218.697      6724.9433      48.731617      2.3577398     -150479.56     -147804.09    
     58400   1126.6985      68113.177      6724.9433      48.731617      2.3577398     -150380.88     -147714.25    
     58500   1080.8881     -21167.007      6724.9433      48.731617      2.3577398     -150199.88     -147641.68    
     58600   1194.4444      70131.11       6724.9433      48.731617      2.3577398     -150353.13     -147526.16    
     58700   1173.0948      19473.002      6724.9433      48.731617      2.3577398     -150453.73     -147677.29    
     58800   1088.1492      257.74036      6724.9433      48.731617      2.3577398     -150394.68     -147819.29    
     58900   1060.8051     -35358.778      6724.9433      48.731617      2.3577398     -150382.37     -147871.69    
     59000   1104.3806      44379.441      6724.9433      48.731617      2.3577398     -150449.66     -147835.85    
     59100   1116.5644      60249.58       6724.9433      48.731617      2.3577398     -150410.83     -147768.19    
     59200   1068.6024      89440.864      6724.9433      48.731617      2.3577398     -150218.16     -147689.03    
     59300   1131.4421      6628.2745      6724.9433      48.731617      2.3577398     -150274.5      -147596.64    
     59400   1126.0067     -11105.431      6724.9433      48.731617      2.3577398     -150300        -147635.01    
     59500   1099.9435      22497.13       6724.9433      48.731617      2.3577398     -150428.28     -147824.97    
     59600   1094.4154      87312.746      6724.9433      48.731617      2.3577398     -150431.03     -147840.81    
     59700   1086.4719      2123.4251      6724.9433      48.731617      2.3577398     -150351.02     -147779.6     
     59800   1175.8165      18684.944      6724.9433      48.731617      2.3577398     -150430.02     -147647.14    
     59900   1110.0727     -29009.071      6724.9433      48.731617      2.3577398     -150319.47     -147692.19    
     60000   1109.3082      23792.023      6724.9433      48.731617      2.3577398     -150561.31     -147935.84    
     60100   1072.4432     -31230.596      6724.9433      48.731617      2.3577398     -150512.79     -147974.57    
     60200   1135.7212      34232.906      6724.9433      48.731617      2.3577398     -150551.83     -147863.85    
     60300   1125.3834     -9673.973       6724.9433      48.731617      2.3577398     -150398.54     -147735.03    
     60400   1103.2787      33768.961      6724.9433      48.731617      2.3577398     -150296.85     -147685.65    
     60500   1104.5545     -3400.6111      6724.9433      48.731617      2.3577398     -150354.41     -147740.19    
     60600   1090.9529      3036.014       6724.9433      48.731617      2.3577398     -150449.5      -147867.48    
     60700   1015.8883      9672.2327      6724.9433      48.731617      2.3577398     -150474.37     -148070.01    
     60800   1047.4524     -22101.598      6724.9433      48.731617      2.3577398     -150476.52     -147997.45    
     60900   1088.2444      40382.259      6724.9433      48.731617      2.3577398     -150454.16     -147878.54    
     61000   1086.0255     -21074.196      6724.9433      48.731617      2.3577398     -150344.18     -147773.82    
     61100   1100.9476     -2700.4743      6724.9433      48.731617      2.3577398     -150304.96     -147699.27    
     61200   1093.6412     -14809.501      6724.9433      48.731617      2.3577398     -150343.5      -147755.11    
     61300   1111.5879      18365.825      6724.9433      48.731617      2.3577398     -150571.9      -147941.03    
     61400   1056.637      -7467.7591      6724.9433      48.731617      2.3577398     -150536.04     -148035.23    
     61500   1043.6715     -52003.371      6724.9433      48.731617      2.3577398     -150426.72     -147956.6     
     61600   1104.2395      37297.158      6724.9433      48.731617      2.3577398     -150433.69     -147820.22    
     61700   1124.1084      6785.2454      6724.9433      48.731617      2.3577398     -150389.68     -147729.18    
     61800   1090.2301      88561.843      6724.9433      48.731617      2.3577398     -150295.76     -147715.44    
     61900   1091.9618     -8616.5032      6724.9433      48.731617      2.3577398     -150349.24     -147764.83    
     62000   1073.8288      37971.06       6724.9433      48.731617      2.3577398     -150504.03     -147962.53    
     62100   1045.6434     -66634.264      6724.9433      48.731617      2.3577398     -150478.77     -148003.98    
     62200   1110.6938      23964.487      6724.9433      48.731617      2.3577398     -150495.02     -147866.27    
     62300   1105.416       45924.961      6724.9433      48.731617      2.3577398     -150395.64     -147779.38    
     62400   1077.5355      61785.906      6724.9433      48.731617      2.3577398     -150285.63     -147735.36    
     62500   1138.151       34138.038      6724.9433      48.731617      2.3577398     -150385.89     -147692.16    
     62600   1090.6479      34818.03       6724.9433      48.731617      2.3577398     -150348.06     -147766.75    
     62700   1056.731       27962.834      6724.9433      48.731617      2.3577398     -150455.3      -147954.27    
     62800   1025.8882     -25652.705      6724.9433      48.731617      2.3577398     -150379.43     -147951.4     
     62900   1079.6504      23865.146      6724.9433      48.731617      2.3577398     -150375.39     -147820.12    
     63000   1107.5735      44315.521      6724.9433      48.731617      2.3577398     -150337.03     -147715.67    
     63100   1069.0387      14804.731      6724.9433      48.731617      2.3577398     -150236.04     -147705.88    
     63200   1144.7121     -18279.167      6724.9433      48.731617      2.3577398     -150436.26     -147727       
     63300   1099.1805     -16933.949      6724.9433      48.731617      2.3577398     -150462.17     -147860.67    
     63400   1108.1323      36915.135      6724.9433      48.731617      2.3577398     -150523.71     -147901.02    
     63500   1062.3922     -48579.384      6724.9433      48.731617      2.3577398     -150391.72     -147877.29    
     63600   1110.1836      36885.867      6724.9433      48.731617      2.3577398     -150445.03     -147817.48    
     63700   1103.3128      52186.39       6724.9433      48.731617      2.3577398     -150380.63     -147769.35    
     63800   1101.468      -5447.8103      6724.9433      48.731617      2.3577398     -150296.52     -147689.61    
     63900   1177.6701      14188.755      6724.9433      48.731617      2.3577398     -150345.27     -147558       
     64000   1143.1341      38993.605      6724.9433      48.731617      2.3577398     -150343.29     -147637.76    
     64100   1099.9128      84062.824      6724.9433      48.731617      2.3577398     -150405.84     -147802.61    
     64200   1093.7147      28853.915      6724.9433      48.731617      2.3577398     -150397.04     -147808.48    
     64300   1133.8499     -16157.544      6724.9433      48.731617      2.3577398     -150430.59     -147747.03    
     64400   1140.2456      51878.738      6724.9433      48.731617      2.3577398     -150409.42     -147710.73    
     64500   1152.2204     -17602.696      6724.9433      48.731617      2.3577398     -150358.59     -147631.55    
[...]
    384200   1119.4723     -16739.082      6724.9433      48.731617      2.3577398     -150441.7      -147792.18    
    384300   1128.5239      40430.66       6724.9433      48.731617      2.3577398     -150414.03     -147743.08    
    384400   1108.1551      69994.33       6724.9433      48.731617      2.3577398     -150342.86     -147720.12    
    384500   1116.0236      98267.661      6724.9433      48.731617      2.3577398     -150418.61     -147777.24    
    384600   1086.8797      36188.318      6724.9433      48.731617      2.3577398     -150503.17     -147930.79    
    384700   1079.1411     -38161.073      6724.9433      48.731617      2.3577398     -150483.44     -147929.37    
    384800   1106.4657     -7389.2507      6724.9433      48.731617      2.3577398     -150413.64     -147794.9     
    384900   1101.2014     -3416.8647      6724.9433      48.731617      2.3577398     -150319.53     -147713.25    
    385000   1079.0126      11069.53       6724.9433      48.731617      2.3577398     -150356.93     -147803.16    
    385100   1081.2648      10310.249      6724.9433      48.731617      2.3577398     -150575.02     -148015.93    
    385200   1073.0499      894.14815      6724.9433      48.731617      2.3577398     -150500.29     -147960.64    
    385300   1078.4604     -13681.866      6724.9433      48.731617      2.3577398     -150378.96     -147826.5     
    385400   1152.7723     -4086.4093      6724.9433      48.731617      2.3577398     -150449.8      -147721.46    
    385500   1074.6354     -8642.5305      6724.9433      48.731617      2.3577398     -150290.74     -147747.33    
    385600   1103.5906      49095.945      6724.9433      48.731617      2.3577398     -150447.78     -147835.84    
    385700   1066.986       55842.722      6724.9433      48.731617      2.3577398     -150558.39     -148033.09    
    385800   1072.7547      37424.615      6724.9433      48.731617      2.3577398     -150547.06     -148008.1     
    385900   1121.8432     -26791.615      6724.9433      48.731617      2.3577398     -150558.59     -147903.46    
    386000   1103.5543      11476.4        6724.9433      48.731617      2.3577398     -150412.01     -147800.16    
    386100   1134.9624      77155.139      6724.9433      48.731617      2.3577398     -150440.85     -147754.66    
    386200   1117.7741     -6225.6597      6724.9433      48.731617      2.3577398     -150443.93     -147798.42    
    386300   1075.5975      16123.936      6724.9433      48.731617      2.3577398     -150535.61     -147989.93    
    386400   1034.2192      22287.037      6724.9433      48.731617      2.3577398     -150450        -148002.25    
    386500   1050.6218     -54575.13       6724.9433      48.731617      2.3577398     -150367.18     -147880.61    
    386600   1089.6177      52344.457      6724.9433      48.731617      2.3577398     -150380.33     -147801.46    
    386700   1074.6622      19664.497      6724.9433      48.731617      2.3577398     -150343.51     -147800.04    
    386800   1061.3891     -8288.423       6724.9433      48.731617      2.3577398     -150343.49     -147831.43    
    386900   1135.6836      38813.118      6724.9433      48.731617      2.3577398     -150474.09     -147786.19    
    387000   1076.6669      33726.512      6724.9433      48.731617      2.3577398     -150280.51     -147732.29    
    387100   1155.6831      11571.842      6724.9433      48.731617      2.3577398     -150389.81     -147654.58    
    387200   1123.1456      71018.508      6724.9433      48.731617      2.3577398     -150336.4      -147678.18    
    387300   1086.4104      18776.02       6724.9433      48.731617      2.3577398     -150427.52     -147856.24    
    387400   1075.457      -8302.952       6724.9433      48.731617      2.3577398     -150466.71     -147921.35    
    387500   1124.8085      7644.5729      6724.9433      48.731617      2.3577398     -150537.49     -147875.33    
    387600   1101.803       38158.922      6724.9433      48.731617      2.3577398     -150408.65     -147800.94    
    387700   1173.5067      1148.6258      6724.9433      48.731617      2.3577398     -150360.6      -147583.19    
    387800   1124.9183     -1059.8683      6724.9433      48.731617      2.3577398     -150259.87     -147597.46    
    387900   1151.9693     -25304.473      6724.9433      48.731617      2.3577398     -150439.81     -147713.37    
    388000   1129.8147      38357.29       6724.9433      48.731617      2.3577398     -150448.93     -147774.92    
    388100   1093.9639      18434.932      6724.9433      48.731617      2.3577398     -150419.77     -147830.62    
    388200   1101.9332      20244.007      6724.9433      48.731617      2.3577398     -150488.31     -147880.3     
    388300   1036.9664     -38035.01       6724.9433      48.731617      2.3577398     -150503.87     -148049.62    
    388400   1086.4379      61510.83       6724.9433      48.731617      2.3577398     -150623.85     -148052.51    
    388500   1105.0474     -1629.2582      6724.9433      48.731617      2.3577398     -150529.17     -147913.79    
    388600   1105.1147      34883.139      6724.9433      48.731617      2.3577398     -150438.47     -147822.93    
    388700   1143.1779      8169.5622      6724.9433      48.731617      2.3577398     -150513.15     -147807.52    
    388800   1141.4583      9778.5107      6724.9433      48.731617      2.3577398     -150530.83     -147829.27    
    388900   1087.6943     -3105.9006      6724.9433      48.731617      2.3577398     -150504.41     -147930.1     
    389000   1033.2642     -4957.1441      6724.9433      48.731617      2.3577398     -150464.05     -148018.56    
    389100   1042.1654      20508.929      6724.9433      48.731617      2.3577398     -150470.08     -148003.52    
    389200   1087.6392      13062.08       6724.9433      48.731617      2.3577398     -150370.1      -147795.91    
    389300   1125.9849      26368.349      6724.9433      48.731617      2.3577398     -150409.38     -147744.44    
    389400   1071.0546      25904.253      6724.9433      48.731617      2.3577398     -150326.01     -147791.07    
    389500   1097.1183      30392.836      6724.9433      48.731617      2.3577398     -150460.14     -147863.52    
    389600   1094.6606      42191.278      6724.9433      48.731617      2.3577398     -150505.94     -147915.14    
    389700   1071.7013     -11751.882      6724.9433      48.731617      2.3577398     -150505.7      -147969.24    
    389800   1075.9006     -37743.91       6724.9433      48.731617      2.3577398     -150479.68     -147933.28    
    389900   1136.3904      774.67713      6724.9433      48.731617      2.3577398     -150469.9      -147780.33    
    390000   1072.581       35765.058      6724.9433      48.731617      2.3577398     -150308.91     -147770.36    
    390100   1079.6155      12674.592      6724.9433      48.731617      2.3577398     -150284.85     -147729.66    
    390200   1144.6044     -10077.614      6724.9433      48.731617      2.3577398     -150286.73     -147577.72    
    390300   1152.8885      9072.4809      6724.9433      48.731617      2.3577398     -150284.06     -147555.44    
    390400   1076.8355      24885.737      6724.9433      48.731617      2.3577398     -150318.19     -147769.58    
    390500   1095.8522     -24259.267      6724.9433      48.731617      2.3577398     -150440.98     -147847.35    
    390600   1076.4326      36002.974      6724.9433      48.731617      2.3577398     -150390.11     -147842.45    
    390700   1152.6074      17227.789      6724.9433      48.731617      2.3577398     -150489.3      -147761.35    
    390800   1139.3438      21996.317      6724.9433      48.731617      2.3577398     -150403.12     -147706.57    
    390900   1124.1118     -20045.437      6724.9433      48.731617      2.3577398     -150414.28     -147753.77    
    391000   1138.3755      22302.989      6724.9433      48.731617      2.3577398     -150604.79     -147910.53    
    391100   1075.1648      28796.091      6724.9433      48.731617      2.3577398     -150521.14     -147976.48    
    391200   1087.7464      42259.871      6724.9433      48.731617      2.3577398     -150446.3      -147871.86    
    391300   1150.806       29948.98       6724.9433      48.731617      2.3577398     -150479.09     -147755.4     
    391400   1064.5866     -43305.231      6724.9433      48.731617      2.3577398     -150291.97     -147772.35    
    391500   1172.7525      32624.59       6724.9433      48.731617      2.3577398     -150530.26     -147754.64    
    391600   1080.8361      51304.223      6724.9433      48.731617      2.3577398     -150419.6      -147861.52    
    391700   1080.0414      45338.793      6724.9433      48.731617      2.3577398     -150533.36     -147977.16    
    391800   1049.9152     -10107.634      6724.9433      48.731617      2.3577398     -150532.3      -148047.4     
    391900   1090.6717      40262.983      6724.9433      48.731617      2.3577398     -150562.84     -147981.48    
    392000   1121.7365     -24064.711      6724.9433      48.731617      2.3577398     -150455.17     -147800.29    
    392100   1112.3346      23704.6        6724.9433      48.731617      2.3577398     -150347.6      -147714.96    
    392200   1127.2973      48107.324      6724.9433      48.731617      2.3577398     -150375.97     -147707.92    
    392300   1112.3182      42724.678      6724.9433      48.731617      2.3577398     -150458.5      -147825.9     
    392400   1033.7456     -844.6661       6724.9433      48.731617      2.3577398     -150421.38     -147974.75    
    392500   1081.6199      64521.215      6724.9433      48.731617      2.3577398     -150498.48     -147938.54    
    392600   1101.4023     -1954.5765      6724.9433      48.731617      2.3577398     -150462.04     -147855.28    
    392700   1112.2631      54658.474      6724.9433      48.731617      2.3577398     -150419.46     -147787       
    392800   1102.2725     -26664.989      6724.9433      48.731617      2.3577398     -150240.29     -147631.47    
    392900   1194.9108      10660.272      6724.9433      48.731617      2.3577398     -150306.15     -147478.08    
    393000   1151.7815      37998.256      6724.9433      48.731617      2.3577398     -150354.66     -147628.67    
    393100   1137.2705      48811.424      6724.9433      48.731617      2.3577398     -150446.17     -147754.52    
    393200   1093.3847      25542.324      6724.9433      48.731617      2.3577398     -150436.54     -147848.76    
    393300   1084.1174     -177.82304      6724.9433      48.731617      2.3577398     -150440.43     -147874.58    
    393400   1059.7978     -36531.784      6724.9433      48.731617      2.3577398     -150402.98     -147894.69    
    393500   1069.1098      14253.799      6724.9433      48.731617      2.3577398     -150389.15     -147858.82    
    393600   1126.8471      6494.4195      6724.9433      48.731617      2.3577398     -150407.1      -147740.12    
    393700   1108.5426      21616.041      6724.9433      48.731617      2.3577398     -150288.79     -147665.13    
    393800   1108.8784      7885.8747      6724.9433      48.731617      2.3577398     -150347.35     -147722.9     
    393900   1069.5884      39562.538      6724.9433      48.731617      2.3577398     -150444.46     -147913       
    394000   1092.7769     -16381.602      6724.9433      48.731617      2.3577398     -150514.26     -147927.92    
    394100   1073.5033      24975.531      6724.9433      48.731617      2.3577398     -150404.92     -147864.19    
    394200   1088.3852      48580.14       6724.9433      48.731617      2.3577398     -150355.38     -147779.43    
    394300   1153.202       1662.0174      6724.9433      48.731617      2.3577398     -150347.33     -147617.97    
    394400   1149.0479      87699.237      6724.9433      48.731617      2.3577398     -150190.27     -147470.74    
    394500   1149.6983      2908.4694      6724.9433      48.731617      2.3577398     -150312.66     -147591.6     
    394600   1146.0469      70730.275      6724.9433      48.731617      2.3577398     -150402.41     -147689.99    
    394700   1114.683       39178.799      6724.9433      48.731617      2.3577398     -150425.94     -147787.75    
    394800   1067.8683      26583.572      6724.9433      48.731617      2.3577398     -150439.37     -147911.98    
    394900   1101.0175      30175.07       6724.9433      48.731617      2.3577398     -150512.63     -147906.78    
    395000   1099.2224     -7428.9823      6724.9433      48.731617      2.3577398     -150478.89     -147877.29    
    395100   1121.9919      32802.282      6724.9433      48.731617      2.3577398     -150299.93     -147644.44    
    395200   1109.7224     -12104.851      6724.9433      48.731617      2.3577398     -150247.03     -147620.58    
    395300   1105.1154      16251.479      6724.9433      48.731617      2.3577398     -150367.08     -147751.54    
    395400   1103.6857      48178.794      6724.9433      48.731617      2.3577398     -150462.7      -147850.54    
    395500   1018.5111     -9308.8056      6724.9433      48.731617      2.3577398     -150302.58     -147892.01    
    395600   1107.319       13048.499      6724.9433      48.731617      2.3577398     -150455.5      -147834.73    
    395700   1149.6221      59823.717      6724.9433      48.731617      2.3577398     -150332.81     -147611.92    
    395800   1113.4658     -38809.061      6724.9433      48.731617      2.3577398     -150230.29     -147594.98    
    395900   1155.3747      26490.219      6724.9433      48.731617      2.3577398     -150452.91     -147718.41    
    396000   1080.8129     -19252.91       6724.9433      48.731617      2.3577398     -150401.26     -147843.23    
    396100   1089.5461      197.69187      6724.9433      48.731617      2.3577398     -150422.15     -147843.45    
    396200   1144.7775      41594.886      6724.9433      48.731617      2.3577398     -150518.79     -147809.37    
    396300   1115.0515      22709.117      6724.9433      48.731617      2.3577398     -150429.78     -147790.72    
    396400   1133.6449      30006.671      6724.9433      48.731617      2.3577398     -150452.62     -147769.55    
    396500   1124.5868      48743.267      6724.9433      48.731617      2.3577398     -150483.99     -147822.36    
    396600   1085.0221      8525.742       6724.9433      48.731617      2.3577398     -150480.09     -147912.1     
    396700   1106.5256     -10155.131      6724.9433      48.731617      2.3577398     -150606.94     -147988.05    
    396800   1099.2294     -9293.7805      6724.9433      48.731617      2.3577398     -150524.08     -147922.46    
    396900   1066.5149      74066.567      6724.9433      48.731617      2.3577398     -150277.26     -147753.07    
    397000   1109.3216      33457.024      6724.9433      48.731617      2.3577398     -150346.72     -147721.22    
    397100   1143.4744     -32891.587      6724.9433      48.731617      2.3577398     -150427.83     -147721.5     
    397200   1136.576       19802.532      6724.9433      48.731617      2.3577398     -150563.53     -147873.52    
    397300   1075.8239      28820.432      6724.9433      48.731617      2.3577398     -150548.95     -148002.73    
    397400   1089.5781     -15326.072      6724.9433      48.731617      2.3577398     -150531.13     -147952.36    
    397500   1089.6792      6350.4403      6724.9433      48.731617      2.3577398     -150440.37     -147861.36    
    397600   1078.3313      1796.7315      6724.9433      48.731617      2.3577398     -150316.37     -147764.21    
    397700   1086.6166      57881.517      6724.9433      48.731617      2.3577398     -150339.65     -147767.89    
    397800   1062.6076      49706.44       6724.9433      48.731617      2.3577398     -150291.4      -147776.46    
    397900   1102.2066     -8211.1343      6724.9433      48.731617      2.3577398     -150355.89     -147747.22    
    398000   1094.9147     -3304.2478      6724.9433      48.731617      2.3577398     -150340.38     -147748.97    
    398100   1082.9598     -15845.454      6724.9433      48.731617      2.3577398     -150447.37     -147884.27    
    398200   1066.0868      25201.723      6724.9433      48.731617      2.3577398     -150539.25     -148016.07    
    398300   1136.2031      5718.9682      6724.9433      48.731617      2.3577398     -150688.11     -147998.98    
    398400   1086.7442      4621.9547      6724.9433      48.731617      2.3577398     -150462.07     -147890       
    398500   1091.2962      14532.163      6724.9433      48.731617      2.3577398     -150302.18     -147719.34    
    398600   1110.9909      27410.359      6724.9433      48.731617      2.3577398     -150352.23     -147722.78    
    398700   1116.8429      56052.54       6724.9433      48.731617      2.3577398     -150407.53     -147764.22    
    398800   1081.6098      13307.668      6724.9433      48.731617      2.3577398     -150403.34     -147843.43    
    398900   1060.3601     -2768.5257      6724.9433      48.731617      2.3577398     -150522.85     -148013.23    
    399000   1076.7399     -53769.306      6724.9433      48.731617      2.3577398     -150595.41     -148047.02    
    399100   1127.1618      79042.561      6724.9433      48.731617      2.3577398     -150534.2      -147866.47    
    399200   1115.2187      45018.146      6724.9433      48.731617      2.3577398     -150429.55     -147790.1     
    399300   1080.7684     -21954.976      6724.9433      48.731617      2.3577398     -150378.63     -147820.71    
    399400   1108.2189     -53283.468      6724.9433      48.731617      2.3577398     -150442.37     -147819.48    
    399500   1096.7219     -21922.977      6724.9433      48.731617      2.3577398     -150457.96     -147862.28    
    399600   1103.4952      13468.718      6724.9433      48.731617      2.3577398     -150568.83     -147957.12    
    399700   1089.6941      40440.692      6724.9433      48.731617      2.3577398     -150579.75     -148000.71    
    399800   1059.0678      28610.649      6724.9433      48.731617      2.3577398     -150381.39     -147874.83    
    399900   1155.6511      42187.945      6724.9433      48.731617      2.3577398     -150450.94     -147715.79    
    400000   1143.6107      49533.167      6724.9433      48.731617      2.3577398     -150442.5      -147735.85    
    400011   1148.4243      29779.541      6724.9433      48.731617      2.3577398     -150465.52     -147747.47    
Loop time of 15275.7 on 64 procs for 400000 steps with 795 atoms

Performance: 0.566 ns/day, 42.433 hours/ns, 26.185 timesteps/s
99.6% CPU use with 64 MPI tasks x 1 OpenMP threads

MPI task timing breakdown:
Section |  min time  |  avg time  |  max time  |%varavg| %total
---------------------------------------------------------------
Pair    | 8474.8     | 10957      | 13735      |1501.8 | 71.73
Neigh   | 110.05     | 141.84     | 182.16     | 163.1 |  0.93
Comm    | 173.68     | 2715.9     | 5011       |2710.2 | 17.78
Output  | 0.50436    | 0.63075    | 0.88811    |   9.4 |  0.00
Modify  | 1181.2     | 1457.7     | 2254.7     | 744.3 |  9.54
Other   |            | 2.814      |            |       |  0.02

Nlocal:        12.4219 ave          16 max           8 min
Histogram: 3 3 8 6 0 10 12 9 12 1
Nghost:        2159.53 ave        2485 max        1825 min
Histogram: 3 7 6 3 9 18 2 6 5 5
Neighs:        6915.05 ave        9248 max        3425 min
Histogram: 4 2 4 7 8 2 9 12 3 13

Total # of neighbors = 442563
Ave neighs/atom = 556.68302
Neighbor list builds = 13328
Dangerous builds = 0

write_data graphene_single_layer_ReaxFF_795_C_temp_1100K.data ### MODIFY FILE NAME ###
System init for write_data ...
Total wall time: 4:14:38
