
# System definition
read_data graphene_single_layer_x-45_y-45_795_C.data ### MODIFY FILE NAME ###
Reading data file ...
  orthogonal box = (-1.4464652 -1.4423034 -1.42) to (47.285152 47.149102 1.42)
  8 by 8 by 1 MPI processor grid
  reading atoms ...
  795 atoms
  reading velocities ...
  795 velocities
  read_data CPU = 0.041 seconds

pair_style reax/c NULL
pair_coeff * * ffield.reax.cho C
Reading potential file ffield.reax.cho with DATE: 2011-02-18
fix qeq_reax all qeq/reax 1 0.0 10.0 1.0e-6 reax/c


# Minimization
timestep 0.25
min_style cg
thermo 100
thermo_style custom step temp press vol lx density pe etotal
dump 2 all custom 1000 graphene_single_layer_ReaxFF_795_C_temp_200K.lammpstrj id type x y z ### MODIFY FILE NAME ###
minimize 1.0e-6 1.0e-6 100 1000

CITE-CITE-CITE-CITE-CITE-CITE-CITE-CITE-CITE-CITE-CITE-CITE-CITE

Your simulation uses code contributions which should be cited:

- pair reaxff command:

@Article{Aktulga12,
 author = {H. M. Aktulga, J. C. Fogarty, S. A. Pandit, A. Y. Grama},
 title = {Parallel reactive molecular dynamics: Numerical methods and algorithmic techniques},
 journal = {Parallel Computing},
 year =    2012,
 volume =  38,
 pages =   {245--259}
}

- fix qeq/reaxff command:

@Article{Aktulga12,
 author = {H. M. Aktulga, J. C. Fogarty, S. A. Pandit, A. Y. Grama},
 title = {Parallel reactive molecular dynamics: Numerical methods and algorithmic techniques},
 journal = {Parallel Computing},
 year =    2012,
 volume =  38,
 pages =   {245--259}
}

CITE-CITE-CITE-CITE-CITE-CITE-CITE-CITE-CITE-CITE-CITE-CITE-CITE

WARNING: Using 'neigh_modify every 1 delay 0 check yes' setting during minimization (src/min.cpp:187)
Neighbor list info ...
  update every 1 steps, delay 0 steps, check yes
  max neighbors/atom: 10000, page size: 100000
  master list distance cutoff = 10.4
  ghost atom cutoff = 10.4
  binsize = 5.2, bins = 10 10 1
  2 neighbor lists, perpetual/occasional/extra = 2 0 0
  (1) pair reax/c, perpetual
      attributes: half, newton off, ghost
      pair build: half/bin/newtoff/ghost
      stencil: full/ghost/bin/3d
      bin: standard
  (2) fix qeq/reax, perpetual, copy from (1)
      attributes: half, newton off
      pair build: copy
      stencil: none
      bin: none
Per MPI rank memory allocation (min/avg/max) = 36.37 | 41.41 | 47.38 Mbytes
   Step          Temp          Press          Volume           Lx          Density         PotEng         TotEng    
         0   923            34054.396      6724.9433      48.731617      2.3577398     -151766.67     -149582.14    
        11   923            35396.792      6724.9433      48.731617      2.3577398     -151904.55     -149720.03    
Loop time of 2.19487 on 64 procs for 11 steps with 795 atoms

99.2% CPU use with 64 MPI tasks x 1 OpenMP threads

Minimization stats:
  Stopping criterion = energy tolerance
  Energy initial, next-to-last, final = 
     -151766.666472543  -151904.508881892  -151904.547898656
  Force two-norm initial, final = 279.94165 356.09863
  Force max component initial, final = 137.99181 55.448555
  Final line search alpha, max atom move = 0.00038853166 0.021543519
  Iterations, force evaluations = 11 32

MPI task timing breakdown:
Section |  min time  |  avg time  |  max time  |%varavg| %total
---------------------------------------------------------------
Pair    | 0.83562    | 1.2403     | 1.7125     |  18.4 | 56.51
Neigh   | 0.014167   | 0.018928   | 0.024344   |   2.0 |  0.86
Comm    | 0.060469   | 0.51468    | 1.0099     |  28.8 | 23.45
Output  | 0          | 0          | 0          |   0.0 |  0.00
Modify  | 0.30757    | 0.31297    | 0.31761    |   0.5 | 14.26
Other   |            | 0.108      |            |       |  4.92

Nlocal:        12.4219 ave          15 max          10 min
Histogram: 15 0 0 0 22 0 12 0 0 15
Nghost:        2194.12 ave        2559 max        1869 min
Histogram: 2 8 9 4 12 12 5 4 6 2
Neighs:        6807.34 ave        8856 max        4476 min
Histogram: 4 8 3 7 7 13 5 2 0 15

Total # of neighbors = 435670
Ave neighs/atom = 548.01258
Neighbor list builds = 1
Dangerous builds = 0

fix 1 all nvt temp 200.0 200.0 $(100.0*dt)  ### MODIFY INIT TEMP, FINAL TEMP ###
fix 1 all nvt temp 200.0 200.0 25  
run 400000
Per MPI rank memory allocation (min/avg/max) = 35.25 | 40.29 | 46.26 Mbytes
   Step          Temp          Press          Volume           Lx          Density         PotEng         TotEng    
        11   923            35396.792      6724.9433      48.731617      2.3577398     -151904.55     -149720.03    
       100   467.24662      49852.451      6724.9433      48.731617      2.3577398     -151213.26     -150107.4     
       200   340.95722      145475.05      6724.9433      48.731617      2.3577398     -151403.6      -150596.64    
       300   325.90439     -75123.158      6724.9433      48.731617      2.3577398     -151769.25     -150997.91    
       400   306.49059      93607.594      6724.9433      48.731617      2.3577398     -152056.53     -151331.14    
       500   268.56488     -15443.736      6724.9433      48.731617      2.3577398     -152258.66     -151623.03    
       600   227.509        29526.847      6724.9433      48.731617      2.3577398     -152364.98     -151826.52    
       700   208.18228      18869.635      6724.9433      48.731617      2.3577398     -152466.9      -151974.18    
       800   195.91965      36165.908      6724.9433      48.731617      2.3577398     -152541.43     -152077.73    
       900   188.41024      38372.465      6724.9433      48.731617      2.3577398     -152589.96     -152144.03    
      1000   185.27223      22673.331      6724.9433      48.731617      2.3577398     -152610.34     -152171.84    
      1100   194.23274      32655.912      6724.9433      48.731617      2.3577398     -152607.47     -152147.77    
      1200   206.91582      40789.552      6724.9433      48.731617      2.3577398     -152590.59     -152100.87    
      1300   214.84293      22062.137      6724.9433      48.731617      2.3577398     -152574.1      -152065.62    
      1400   213.79923      25895.009      6724.9433      48.731617      2.3577398     -152581.28     -152075.27    
      1500   202.29215      2137.0702      6724.9433      48.731617      2.3577398     -152588.92     -152110.14    
      1600   203.92663      15074.687      6724.9433      48.731617      2.3577398     -152657.04     -152174.39    
      1700   194.40398      17631.191      6724.9433      48.731617      2.3577398     -152700.73     -152240.63    
      1800   189.72513      28736.027      6724.9433      48.731617      2.3577398     -152720.9      -152271.86    
      1900   191.8441      -8819.0183      6724.9433      48.731617      2.3577398     -152717.17     -152263.12    
      2000   202.83743     -7065.9207      6724.9433      48.731617      2.3577398     -152700.73     -152220.66    
      2100   201.67619      28932.013      6724.9433      48.731617      2.3577398     -152658.02     -152180.7     
      2200   201.99894      11453.479      6724.9433      48.731617      2.3577398     -152650.41     -152172.33    
      2300   205.12084      11625.415      6724.9433      48.731617      2.3577398     -152673.37     -152187.9     
      2400   199.48389      30933.661      6724.9433      48.731617      2.3577398     -152699.4      -152227.27    
      2500   196.86607      50611.3        6724.9433      48.731617      2.3577398     -152719.66     -152253.73    
      2600   197.50437      18691.285      6724.9433      48.731617      2.3577398     -152707.98     -152240.54    
      2700   201.23146      17883.856      6724.9433      48.731617      2.3577398     -152684.28     -152208.01    
      2800   205.95438      51034.426      6724.9433      48.731617      2.3577398     -152667.46     -152180.01    
      2900   207.61435      23687.098      6724.9433      48.731617      2.3577398     -152678.54     -152187.17    
      3000   206.39366      57102.437      6724.9433      48.731617      2.3577398     -152706.04     -152217.56    
      3100   195.74598      17948.587      6724.9433      48.731617      2.3577398     -152710.09     -152246.81    
      3200   201.15658      37089.139      6724.9433      48.731617      2.3577398     -152732.23     -152256.14    
      3300   200.28126      27387.695      6724.9433      48.731617      2.3577398     -152719.43     -152245.41    
      3400   203.89477     -919.22914      6724.9433      48.731617      2.3577398     -152701.92     -152219.35    
      3500   204.12656      2793.4427      6724.9433      48.731617      2.3577398     -152677.31     -152194.19    
      3600   207.72904      9247.5271      6724.9433      48.731617      2.3577398     -152683.29     -152191.65    
      3700   193.06864     -10781.501      6724.9433      48.731617      2.3577398     -152669.04     -152212.09    
      3800   195.11051      15850.318      6724.9433      48.731617      2.3577398     -152702.75     -152240.97    
      3900   203.7584       32432.08       6724.9433      48.731617      2.3577398     -152736        -152253.75    
      4000   197.2372       22193.44       6724.9433      48.731617      2.3577398     -152713.51     -152246.7     
      4100   198.34649      35720.931      6724.9433      48.731617      2.3577398     -152686.56     -152217.12    
      4200   209.32981      22132.736      6724.9433      48.731617      2.3577398     -152688.19     -152192.75    
      4300   217.73168      7401.0439      6724.9433      48.731617      2.3577398     -152717.13     -152201.81    
      4400   203.48469      52451.43       6724.9433      48.731617      2.3577398     -152711.28     -152229.68    
      4500   188.96231      13556.026      6724.9433      48.731617      2.3577398     -152705.33     -152258.1     
      4600   190.47156      17388.361      6724.9433      48.731617      2.3577398     -152704.22     -152253.42    
      4700   197.92681      31488.434      6724.9433      48.731617      2.3577398     -152692.14     -152223.7     
      4800   213.86953     -4537.8208      6724.9433      48.731617      2.3577398     -152704.2      -152198.02    
      4900   209.60889      43161.97       6724.9433      48.731617      2.3577398     -152692.17     -152196.08    
      5000   191.74823      32718.812      6724.9433      48.731617      2.3577398     -152677.37     -152223.55    
      5100   195.77976      979.15828      6724.9433      48.731617      2.3577398     -152710.97     -152247.6     
      5200   193.67977     -2338.3294      6724.9433      48.731617      2.3577398     -152705.66     -152247.26    
      5300   199.30782      27405.016      6724.9433      48.731617      2.3577398     -152705.68     -152233.96    
      5400   201.59515      22033.232      6724.9433      48.731617      2.3577398     -152689.25     -152212.12    
      5500   206.69929     -11939.313      6724.9433      48.731617      2.3577398     -152688.97     -152199.76    
      5600   206.60649      13532.85       6724.9433      48.731617      2.3577398     -152701.41     -152212.42    
      5700   199.6411       54503.039      6724.9433      48.731617      2.3577398     -152705.74     -152233.23    
      5800   202.8852       27851.167      6724.9433      48.731617      2.3577398     -152724.27     -152244.09    
      5900   195.76266      18843.997      6724.9433      48.731617      2.3577398     -152705.06     -152241.74    
      6000   198.08333      17310.591      6724.9433      48.731617      2.3577398     -152698.76     -152229.95    
      6100   206.08134      16181.904      6724.9433      48.731617      2.3577398     -152698.79     -152211.04    
      6200   204.16476      19451.167      6724.9433      48.731617      2.3577398     -152696.06     -152212.85    
      6300   193.93098      8108.51        6724.9433      48.731617      2.3577398     -152687.55     -152228.56    
      6400   192.43898      25079.551      6724.9433      48.731617      2.3577398     -152693.17     -152237.71    
      6500   196.23081      63635.62       6724.9433      48.731617      2.3577398     -152696.66     -152232.23    
      6600   205.03901     -13779.334      6724.9433      48.731617      2.3577398     -152698.49     -152213.21    
      6700   202.45721      23850.205      6724.9433      48.731617      2.3577398     -152683.86     -152204.69    
      6800   196.57306      53098.051      6724.9433      48.731617      2.3577398     -152679.06     -152213.82    
      6900   201.57454      16974.69       6724.9433      48.731617      2.3577398     -152714.78     -152237.7     
      7000   195.27956      37151.697      6724.9433      48.731617      2.3577398     -152716.97     -152254.79    
      7100   189.47261      4113.0695      6724.9433      48.731617      2.3577398     -152691.95     -152243.52    
      7200   201.33371      16786.243      6724.9433      48.731617      2.3577398     -152697.09     -152220.58    
      7300   202.91176      10014.859      6724.9433      48.731617      2.3577398     -152701.79     -152221.54    
      7400   200.94666     -4988.4275      6724.9433      48.731617      2.3577398     -152709.34     -152233.75    
      7500   197.16318      11269.411      6724.9433      48.731617      2.3577398     -152723.6      -152256.96    
      7600   193.68052      27748.191      6724.9433      48.731617      2.3577398     -152708.92     -152250.53    
      7700   202.68896      21500.747      6724.9433      48.731617      2.3577398     -152702.65     -152222.94    
      7800   193.78174      17264.837      6724.9433      48.731617      2.3577398     -152675.41     -152216.77    
      7900   200.16957      28651.226      6724.9433      48.731617      2.3577398     -152694.33     -152220.57    
      8000   195.14324      23266.267      6724.9433      48.731617      2.3577398     -152703.8      -152241.94    
      8100   194.35951      4060.225       6724.9433      48.731617      2.3577398     -152712.75     -152252.75    
      8200   192.26575      980.07312      6724.9433      48.731617      2.3577398     -152692.49     -152237.44    
      8300   200.88956     -7596.3117      6724.9433      48.731617      2.3577398     -152680.5      -152205.04    
      8400   195.97382      36671.567      6724.9433      48.731617      2.3577398     -152667.6      -152203.78    
      8500   196.88892     -17302.148      6724.9433      48.731617      2.3577398     -152692.77     -152226.78    
      8600   193.66725     -3445.7973      6724.9433      48.731617      2.3577398     -152704.84     -152246.48    
      8700   199.03121     -274.32216      6724.9433      48.731617      2.3577398     -152713.73     -152242.67    
      8800   194.10784      21319.014      6724.9433      48.731617      2.3577398     -152691.06     -152231.65    
      8900   205.38187      4201.8578      6724.9433      48.731617      2.3577398     -152688.69     -152202.6     
      9000   215.53389      15119.868      6724.9433      48.731617      2.3577398     -152675.16     -152165.04    
      9100   201.62752      25245.57       6724.9433      48.731617      2.3577398     -152666        -152188.79    
      9200   201.50763      20864.614      6724.9433      48.731617      2.3577398     -152696.59     -152219.66    
      9300   196.91137      13393.51       6724.9433      48.731617      2.3577398     -152701.15     -152235.11    
      9400   194.60563      40148.059      6724.9433      48.731617      2.3577398     -152703.12     -152242.54    
      9500   196.08659     -12000.507      6724.9433      48.731617      2.3577398     -152714.31     -152250.22    
      9600   194.89019      44980.677      6724.9433      48.731617      2.3577398     -152718.44     -152257.18    
      9700   192.76308      19174.028      6724.9433      48.731617      2.3577398     -152691.38     -152235.16    
      9800   212.37564      2908.552       6724.9433      48.731617      2.3577398     -152712.39     -152209.75    
      9900   208.60114      24511.559      6724.9433      48.731617      2.3577398     -152709.81     -152216.1     
     10000   201.65467      28115.48       6724.9433      48.731617      2.3577398     -152713.22     -152235.95    
     10100   199.10538      59438.139      6724.9433      48.731617      2.3577398     -152717.19     -152245.96    
     10200   197.51938      5131.9734      6724.9433      48.731617      2.3577398     -152694.97     -152227.48    
     10300   203.2352       18078.747      6724.9433      48.731617      2.3577398     -152683.22     -152202.21    
     10400   199.52577     -7921.5049      6724.9433      48.731617      2.3577398     -152685.11     -152212.88    
     10500   199.34193      42589.173      6724.9433      48.731617      2.3577398     -152711.77     -152239.97    
     10600   194.1855       25031.794      6724.9433      48.731617      2.3577398     -152707.74     -152248.15    
     10700   201.30388      49251.508      6724.9433      48.731617      2.3577398     -152711.51     -152235.07    
     10800   193.57052      44744.865      6724.9433      48.731617      2.3577398     -152685.8      -152227.66    
     10900   201.13641     -63.160682      6724.9433      48.731617      2.3577398     -152698.49     -152222.45    
     11000   194.89412      22901.711      6724.9433      48.731617      2.3577398     -152689.54     -152228.27    
     11100   197.77589      17349.961      6724.9433      48.731617      2.3577398     -152697.64     -152229.55    
     11200   201.93267      18458.057      6724.9433      48.731617      2.3577398     -152703.53     -152225.61    
     11300   201.42024      32292.764      6724.9433      48.731617      2.3577398     -152690.95     -152214.23    
     11400   203.49457      51334.29       6724.9433      48.731617      2.3577398     -152677.55     -152195.93    
     11500   206.22392      36904.925      6724.9433      48.731617      2.3577398     -152694.07     -152205.99    
     11600   202.89473     -8798.3203      6724.9433      48.731617      2.3577398     -152720.95     -152240.74    
     11700   198.72642      36328.989      6724.9433      48.731617      2.3577398     -152724.45     -152254.11    
     11800   198.56928     -834.10746      6724.9433      48.731617      2.3577398     -152720.04     -152250.08    
     11900   203.57047      49272.661      6724.9433      48.731617      2.3577398     -152714.03     -152232.22    
     12000   211.52346     -7941.2324      6724.9433      48.731617      2.3577398     -152701.65     -152201.02    
     12100   201.2004       9286.8144      6724.9433      48.731617      2.3577398     -152676.08     -152199.88    
     12200   205.16361      21742.574      6724.9433      48.731617      2.3577398     -152694.76     -152209.18    
     12300   199.7334       17764.793      6724.9433      48.731617      2.3577398     -152700.43     -152227.71    
     12400   194.63622      4058.5788      6724.9433      48.731617      2.3577398     -152698.31     -152237.65    
     12500   198.26646      21990.589      6724.9433      48.731617      2.3577398     -152702.76     -152233.51    
     12600   209.73302      59269.677      6724.9433      48.731617      2.3577398     -152708.41     -152212.02    
     12700   216.66591      26672.187      6724.9433      48.731617      2.3577398     -152697.29     -152184.49    
     12800   207.1353       19632.762      6724.9433      48.731617      2.3577398     -152696.14     -152205.9     
     12900   200.75583     -25651.337      6724.9433      48.731617      2.3577398     -152706.36     -152231.22    
     13000   197.30346      39335.789      6724.9433      48.731617      2.3577398     -152710.36     -152243.39    
     13100   196.29413      52607.852      6724.9433      48.731617      2.3577398     -152715.1      -152250.52    
     13200   201.18754      24860.914      6724.9433      48.731617      2.3577398     -152723.16     -152246.99    
     13300   208.62959      11017.16       6724.9433      48.731617      2.3577398     -152707.18     -152213.41    
     13400   205.65219      13448.15       6724.9433      48.731617      2.3577398     -152688.74     -152202.01    
     13500   207.34255      35344.711      6724.9433      48.731617      2.3577398     -152716.15     -152225.42    
     13600   192.18011      44485.777      6724.9433      48.731617      2.3577398     -152697.03     -152242.18    
     13700   199.66852     -2478.9166      6724.9433      48.731617      2.3577398     -152718.89     -152246.32    
     13800   203.85436      44299.141      6724.9433      48.731617      2.3577398     -152728.41     -152245.94    
     13900   207.61662     -18525.058      6724.9433      48.731617      2.3577398     -152735.86     -152244.48    
     14000   197.10284      36548.448      6724.9433      48.731617      2.3577398     -152708.86     -152242.36    
     14100   203.17875      12686.06       6724.9433      48.731617      2.3577398     -152709.2      -152228.32    
     14200   203.43412      16488.396      6724.9433      48.731617      2.3577398     -152693.54     -152212.06    
     14300   198.52154      26491.148      6724.9433      48.731617      2.3577398     -152670.81     -152200.96    
     14400   213.04739      36251.125      6724.9433      48.731617      2.3577398     -152694.81     -152190.58    
     14500   192.47586     -32510.265      6724.9433      48.731617      2.3577398     -152684.68     -152229.13    
     14600   201.43958      29200.034      6724.9433      48.731617      2.3577398     -152723.76     -152247       
     14700   200.96557      39686.346      6724.9433      48.731617      2.3577398     -152728.49     -152252.86    
     14800   201.03748     -2330.9855      6724.9433      48.731617      2.3577398     -152716.66     -152240.85    
     14900   203.54756      23390.073      6724.9433      48.731617      2.3577398     -152699.92     -152218.17    
     15000   199.27094     -13028.025      6724.9433      48.731617      2.3577398     -152677.88     -152206.26    
     15100   198.35682      3093.9336      6724.9433      48.731617      2.3577398     -152696.43     -152226.96    
     15200   205.59156      35942.61       6724.9433      48.731617      2.3577398     -152739.06     -152252.47    
     15300   204.71311      24483.094      6724.9433      48.731617      2.3577398     -152740.79     -152256.28    
     15400   197.16343      20636.364      6724.9433      48.731617      2.3577398     -152706.89     -152240.25    
     15500   201.09292     -8328.4643      6724.9433      48.731617      2.3577398     -152682.59     -152206.65    
     15600   203.8306      -2902.8953      6724.9433      48.731617      2.3577398     -152689.82     -152207.4     
     15700   197.61521     -6799.4455      6724.9433      48.731617      2.3577398     -152693.38     -152225.67    
     15800   188.74399      32288.99       6724.9433      48.731617      2.3577398     -152688.42     -152241.71    
     15900   197.09097     -27856.594      6724.9433      48.731617      2.3577398     -152701.91     -152235.44    
     16000   202.60164      29625.137      6724.9433      48.731617      2.3577398     -152705.83     -152226.32    
     16100   203.93325      23051.943      6724.9433      48.731617      2.3577398     -152711.44     -152228.78    
     16200   197.80517      41221.331      6724.9433      48.731617      2.3577398     -152699.21     -152231.06    
     16300   198.00599     -6952.5164      6724.9433      48.731617      2.3577398     -152709.22     -152240.59    
     16400   188.15442      14801.634      6724.9433      48.731617      2.3577398     -152733.92     -152288.6     
     16500   189.90224      13907.082      6724.9433      48.731617      2.3577398     -152728.33     -152278.87    
     16600   196.67671     -18176.644      6724.9433      48.731617      2.3577398     -152712.83     -152247.35    
     16700   196.377        47151.424      6724.9433      48.731617      2.3577398     -152692.92     -152228.14    
     16800   197.53124     -35650.746      6724.9433      48.731617      2.3577398     -152686.03     -152218.52    
     16900   189.53964      32654.035      6724.9433      48.731617      2.3577398     -152688.81     -152240.21    
     17000   197.32065     -14149.975      6724.9433      48.731617      2.3577398     -152727.12     -152260.1     
     17100   195.96053      18311.039      6724.9433      48.731617      2.3577398     -152728.29     -152264.49    
     17200   202.72044      4167.1733      6724.9433      48.731617      2.3577398     -152703.91     -152224.12    
     17300   194.2517       6886.6237      6724.9433      48.731617      2.3577398     -152669.3      -152209.55    
     17400   199.87431      8674.8257      6724.9433      48.731617      2.3577398     -152700.49     -152227.44    
     17500   198.1692       1759.4937      6724.9433      48.731617      2.3577398     -152717.07     -152248.05    
     17600   200.80892      13859.048      6724.9433      48.731617      2.3577398     -152733.01     -152257.74    
     17700   197.10957     -1402.8886      6724.9433      48.731617      2.3577398     -152727.49     -152260.98    
     17800   198.65483      34402.272      6724.9433      48.731617      2.3577398     -152707.15     -152236.98    
     17900   198.25893     -6164.4303      6724.9433      48.731617      2.3577398     -152686.02     -152216.79    
     18000   202.2361       17380.907      6724.9433      48.731617      2.3577398     -152703.97     -152225.33    
     18100   194.29487      20731.088      6724.9433      48.731617      2.3577398     -152710.6      -152250.75    
     18200   190.8881       32558.459      6724.9433      48.731617      2.3577398     -152716.32     -152264.54    
     18300   199.58365     -3909.5088      6724.9433      48.731617      2.3577398     -152733.44     -152261.07    
     18400   197.85755      6535.1356      6724.9433      48.731617      2.3577398     -152701.51     -152233.22    
     18500   198.26367     -899.34405      6724.9433      48.731617      2.3577398     -152679.04     -152209.8     
     18600   212.91638      22179.721      6724.9433      48.731617      2.3577398     -152718.32     -152214.4     
     18700   197.27152      27878.628      6724.9433      48.731617      2.3577398     -152708.4      -152241.51    
     18800   191.88718     -1701.0283      6724.9433      48.731617      2.3577398     -152702.43     -152248.28    
     18900   196.83782     -31544.57       6724.9433      48.731617      2.3577398     -152717.91     -152252.04    
     19000   206.24718      56306.421      6724.9433      48.731617      2.3577398     -152731.43     -152243.29    
     19100   200.93558     -28638.144      6724.9433      48.731617      2.3577398     -152692.98     -152217.41    
     19200   201.86547      45824          6724.9433      48.731617      2.3577398     -152684.57     -152206.81    
     19300   201.565        17697.78       6724.9433      48.731617      2.3577398     -152704.65     -152227.59    
     19400   193.90057     -1158.8382      6724.9433      48.731617      2.3577398     -152706.55     -152247.63    
     19500   194.22357     -1455.8649      6724.9433      48.731617      2.3577398     -152710.78     -152251.1     
     19600   192.28031      33500.21       6724.9433      48.731617      2.3577398     -152694.44     -152239.36    
     19700   213.12588      11716.962      6724.9433      48.731617      2.3577398     -152698.59     -152194.17    
     19800   200.14523     -16690.903      6724.9433      48.731617      2.3577398     -152668.49     -152194.8     
     19900   200.0864       26574.006      6724.9433      48.731617      2.3577398     -152694.28     -152220.72    
     20000   207.77591      15675.36       6724.9433      48.731617      2.3577398     -152729.64     -152237.89    
     20100   195.49906      18224.594      6724.9433      48.731617      2.3577398     -152713.48     -152250.78    
     20200   197.79552      67275.589      6724.9433      48.731617      2.3577398     -152713.47     -152245.34    
     20300   198.16345     -15856.658      6724.9433      48.731617      2.3577398     -152682.05     -152213.05    
     20400   203.20489      64283.611      6724.9433      48.731617      2.3577398     -152671.17     -152190.24    
     20500   214.22218      13.334643      6724.9433      48.731617      2.3577398     -152709.74     -152202.72    
     20600   196.74735      27943.782      6724.9433      48.731617      2.3577398     -152695.37     -152229.71    
     20700   197.2381       18668.785      6724.9433      48.731617      2.3577398     -152700.81     -152234       
     20800   198.21223     -5574.8547      6724.9433      48.731617      2.3577398     -152704.18     -152235.06    
     20900   193.26757      25320.176      6724.9433      48.731617      2.3577398     -152707.23     -152249.81    
     21000   184.6418       41053.982      6724.9433      48.731617      2.3577398     -152710.71     -152273.71    
     21100   193.46615      6228.1936      6724.9433      48.731617      2.3577398     -152719.7      -152261.81    
     21200   203.45132      25046.17       6724.9433      48.731617      2.3577398     -152711.98     -152230.46    
     21300   201.87456      1088.5467      6724.9433      48.731617      2.3577398     -152702.15     -152224.36    
     21400   195.69519      31833.488      6724.9433      48.731617      2.3577398     -152690.3      -152227.13    
     21500   196.83466     -16001.675      6724.9433      48.731617      2.3577398     -152704.87     -152239.01    
     21600   192.1512       44625.675      6724.9433      48.731617      2.3577398     -152720.96     -152266.18    
     21700   193.41793      24227.796      6724.9433      48.731617      2.3577398     -152723.89     -152266.11    
     21800   197.88773      10442.371      6724.9433      48.731617      2.3577398     -152699.03     -152230.68    
     21900   202.78387      14046.835      6724.9433      48.731617      2.3577398     -152704.35     -152224.41    
     22000   200.60291     -7563.4769      6724.9433      48.731617      2.3577398     -152707.51     -152232.73    
     22100   195.72726      40409.703      6724.9433      48.731617      2.3577398     -152711.99     -152248.75    
     22200   193.86885      5504.9675      6724.9433      48.731617      2.3577398     -152716.09     -152257.25    
     22300   204.2772       45438.845      6724.9433      48.731617      2.3577398     -152724.01     -152240.53    
     22400   201.69585      2592.4459      6724.9433      48.731617      2.3577398     -152698.02     -152220.65    
     22500   207.72201      3614.5453      6724.9433      48.731617      2.3577398     -152714.78     -152223.15    
     22600   204.15633      8243.1665      6724.9433      48.731617      2.3577398     -152731.24     -152248.05    
     22700   194.25635      3702.2722      6724.9433      48.731617      2.3577398     -152725.31     -152265.55    
     22800   197.61756      18413.551      6724.9433      48.731617      2.3577398     -152720.5      -152252.78    
     22900   203.73434     -25037.659      6724.9433      48.731617      2.3577398     -152708.54     -152226.35    
     23000   198.39925      35420.964      6724.9433      48.731617      2.3577398     -152689.11     -152219.55    
     23100   200.2163      -5683.5576      6724.9433      48.731617      2.3577398     -152696.6      -152222.73    
     23200   197.04415      2063.9258      6724.9433      48.731617      2.3577398     -152704.57     -152238.21    
     23300   199.94956      41911.864      6724.9433      48.731617      2.3577398     -152727.08     -152253.85    
     23400   200.9563       21376.732      6724.9433      48.731617      2.3577398     -152733.21     -152257.6     
     23500   195.08279      29834.955      6724.9433      48.731617      2.3577398     -152722.8      -152261.09    
     23600   198.35545      8797.3248      6724.9433      48.731617      2.3577398     -152704.59     -152235.13    
     23700   201.12108     -23980.684      6724.9433      48.731617      2.3577398     -152690.72     -152214.72    
     23800   203.12661      53473.049      6724.9433      48.731617      2.3577398     -152701.11     -152220.36    
     23900   198.39885     -7377.1904      6724.9433      48.731617      2.3577398     -152713.23     -152243.67    
     24000   191.07156      34492.75       6724.9433      48.731617      2.3577398     -152716.59     -152264.37    
     24100   196.01895     -23836.763      6724.9433      48.731617      2.3577398     -152717.31     -152253.38    
     24200   198.32386      14796.632      6724.9433      48.731617      2.3577398     -152715.23     -152245.84    
     24300   201.66054     -13523.135      6724.9433      48.731617      2.3577398     -152713.97     -152236.68    
     24400   202.67908      43632.43       6724.9433      48.731617      2.3577398     -152707.95     -152228.26    
     24500   205.15773      2548.0325      6724.9433      48.731617      2.3577398     -152711.2      -152225.64    
     24600   201.29158      10053.555      6724.9433      48.731617      2.3577398     -152698.77     -152222.36    
     24700   208.20644     -2292.5865      6724.9433      48.731617      2.3577398     -152719.56     -152226.78    
     24800   198.36071      6266.9939      6724.9433      48.731617      2.3577398     -152717.52     -152248.04    
     24900   190.86969      30954.394      6724.9433      48.731617      2.3577398     -152715.56     -152263.81    
     25000   198.23993      21863.017      6724.9433      48.731617      2.3577398     -152715.67     -152246.48    
     25100   201.85076      2674.6167      6724.9433      48.731617      2.3577398     -152693.82     -152216.09    
     25200   201.47172     -11050.794      6724.9433      48.731617      2.3577398     -152698.09     -152221.25    
     25300   199.158        25558.166      6724.9433      48.731617      2.3577398     -152713.81     -152242.45    
     25400   195.37863      13493.052      6724.9433      48.731617      2.3577398     -152717.95     -152255.54    
     25500   197.61617      42914.442      6724.9433      48.731617      2.3577398     -152719.27     -152251.56    
     25600   204.74632     -12292.486      6724.9433      48.731617      2.3577398     -152707.03     -152222.44    
     25700   207.09017      18543.546      6724.9433      48.731617      2.3577398     -152684.57     -152194.44    
     25800   212.592       -35034.46       6724.9433      48.731617      2.3577398     -152710.2      -152207.05    
     25900   194.10674      58293.551      6724.9433      48.731617      2.3577398     -152692.46     -152233.05    
     26000   201.12869     -39842.178      6724.9433      48.731617      2.3577398     -152718.97     -152242.95    
     26100   194.91467      39888.016      6724.9433      48.731617      2.3577398     -152712.87     -152251.55    
     26200   194.25448      22697.823      6724.9433      48.731617      2.3577398     -152713.19     -152253.43    
     26300   202.43995      7813.5086      6724.9433      48.731617      2.3577398     -152702.27     -152223.14    
     26400   209.54745      32019.772      6724.9433      48.731617      2.3577398     -152705.82     -152209.87    
     26500   203.63309      7143.5234      6724.9433      48.731617      2.3577398     -152703.23     -152221.27    
     26600   198.64558      37589.368      6724.9433      48.731617      2.3577398     -152722.22     -152252.08    
     26700   192.51964      6018.3811      6724.9433      48.731617      2.3577398     -152722.23     -152266.58    
     26800   195.9217       30262.774      6724.9433      48.731617      2.3577398     -152722.43     -152258.73    
     26900   203.76563      14866.814      6724.9433      48.731617      2.3577398     -152733.3      -152251.03    
     27000   207.65128     -3486.2237      6724.9433      48.731617      2.3577398     -152727.67     -152236.21    
     27100   210.82095      7567.1823      6724.9433      48.731617      2.3577398     -152698.6      -152199.63    
     27200   209.142        18152.321      6724.9433      48.731617      2.3577398     -152686.02     -152191.03    
     27300   203.31525     -10274.119      6724.9433      48.731617      2.3577398     -152708.45     -152227.25    
     27400   199.07996     -1791.7436      6724.9433      48.731617      2.3577398     -152713.22     -152242.04    
     27500   196.46399      49303.036      6724.9433      48.731617      2.3577398     -152713.37     -152248.39    
     27600   202.22011      19409.216      6724.9433      48.731617      2.3577398     -152722        -152243.39    
     27700   205.39137      5003.8094      6724.9433      48.731617      2.3577398     -152706.51     -152220.4     
     27800   211.02716     -2556.0089      6724.9433      48.731617      2.3577398     -152705.15     -152205.7     
     27900   203.66911      19677.417      6724.9433      48.731617      2.3577398     -152704.37     -152222.34    
     28000   196.40849      35423.046      6724.9433      48.731617      2.3577398     -152723.96     -152259.11    
     28100   192.16378      35845.633      6724.9433      48.731617      2.3577398     -152715.26     -152260.46    
     28200   195.45081      36016.57       6724.9433      48.731617      2.3577398     -152705.98     -152243.4     
     28300   206.76453     -20257.218      6724.9433      48.731617      2.3577398     -152715.98     -152226.62    
     28400   207.50744      39354.498      6724.9433      48.731617      2.3577398     -152714.74     -152223.62    
     28500   202.13472     -13823.473      6724.9433      48.731617      2.3577398     -152729.89     -152251.49    
     28600   192.83566      26849.437      6724.9433      48.731617      2.3577398     -152727.17     -152270.77    
     28700   191.84341      21889.09       6724.9433      48.731617      2.3577398     -152718.39     -152264.35    
     28800   202.04252      6682.4165      6724.9433      48.731617      2.3577398     -152712.49     -152234.31    
     28900   200.08488      19219.161      6724.9433      48.731617      2.3577398     -152700.77     -152227.21    
     29000   206.93154      13960.675      6724.9433      48.731617      2.3577398     -152719.5      -152229.74    
     29100   198.43834      43536.657      6724.9433      48.731617      2.3577398     -152712.56     -152242.91    
     29200   197.48743     -8096.6968      6724.9433      48.731617      2.3577398     -152725        -152257.59    
     29300   191.27125      33278.578      6724.9433      48.731617      2.3577398     -152726.2      -152273.5     
     29400   192.09787      26576.967      6724.9433      48.731617      2.3577398     -152715.87     -152261.22    
     29500   195.34698      3294.859       6724.9433      48.731617      2.3577398     -152695.31     -152232.97    
     29600   199.67092      22175.288      6724.9433      48.731617      2.3577398     -152690.84     -152218.26    
     29700   210.48922      2242.1116      6724.9433      48.731617      2.3577398     -152710.92     -152212.74    
     29800   204.1441       32549.029      6724.9433      48.731617      2.3577398     -152715.39     -152232.23    
     29900   196.82588     -13852.111      6724.9433      48.731617      2.3577398     -152704.1      -152238.26    
     30000   206.77911      54049          6724.9433      48.731617      2.3577398     -152718.44     -152229.04    
     30100   198.99379      4485.9786      6724.9433      48.731617      2.3577398     -152700.41     -152229.44    
     30200   202.02597      22370.699      6724.9433      48.731617      2.3577398     -152722.31     -152244.16    
     30300   195.49071     -2005.8887      6724.9433      48.731617      2.3577398     -152736.71     -152274.03    
     30400   190.51123      44379.727      6724.9433      48.731617      2.3577398     -152725.21     -152274.32    
     30500   202.27614     -19177.763      6724.9433      48.731617      2.3577398     -152726.36     -152247.62    
     30600   198.16939      22134.148      6724.9433      48.731617      2.3577398     -152710.71     -152241.69    
     30700   199.04569      16771.084      6724.9433      48.731617      2.3577398     -152706.5      -152235.41    
     30800   209.55463      6045.9135      6724.9433      48.731617      2.3577398     -152717.78     -152221.81    
     30900   201.21463      47512.87       6724.9433      48.731617      2.3577398     -152700.79     -152224.56    
     31000   195.0891      -33107.402      6724.9433      48.731617      2.3577398     -152711.98     -152250.25    
     31100   198.04582      26174.619      6724.9433      48.731617      2.3577398     -152738.53     -152269.8     
     31200   206.352        27803.22       6724.9433      48.731617      2.3577398     -152748.05     -152259.67    
     31300   200.4575      -1401.9035      6724.9433      48.731617      2.3577398     -152709.43     -152234.99    
     31400   200.91442     -14260.034      6724.9433      48.731617      2.3577398     -152706.62     -152231.1     
     31500   205.36027      2848.2361      6724.9433      48.731617      2.3577398     -152719.19     -152233.15    
     31600   202.82428      8383.7906      6724.9433      48.731617      2.3577398     -152735.83     -152255.8     
     31700   194.42415      23376.962      6724.9433      48.731617      2.3577398     -152730.74     -152270.59    
     31800   196.6548       30495.233      6724.9433      48.731617      2.3577398     -152725.95     -152260.51    
     31900   198.64936      26817.641      6724.9433      48.731617      2.3577398     -152715.83     -152245.67    
     32000   206.72157      20256.484      6724.9433      48.731617      2.3577398     -152721.88     -152232.62    
     32100   200.92385      13496.779      6724.9433      48.731617      2.3577398     -152700.41     -152224.88    
     32200   209.44789      15231.531      6724.9433      48.731617      2.3577398     -152711.59     -152215.87    
     32300   200.58609      7052.2806      6724.9433      48.731617      2.3577398     -152706.49     -152231.75    
     32400   195.46052      8773.7283      6724.9433      48.731617      2.3577398     -152727.14     -152264.53    
     32500   199.83141      39488.055      6724.9433      48.731617      2.3577398     -152739.01     -152266.06    
     32600   200.90724      13346.316      6724.9433      48.731617      2.3577398     -152725.22     -152249.72    
     32700   200.48688     -14282.286      6724.9433      48.731617      2.3577398     -152700.68     -152226.17    
     32800   206.20057      58652.333      6724.9433      48.731617      2.3577398     -152710.19     -152222.16    
     32900   194.20863     -6187.6139      6724.9433      48.731617      2.3577398     -152714.38     -152254.73    
     33000   185.18315      21720.424      6724.9433      48.731617      2.3577398     -152718.34     -152280.05    
     33100   196.49276      14609.344      6724.9433      48.731617      2.3577398     -152725.53     -152260.48    
     33200   206.05632     -20190.523      6724.9433      48.731617      2.3577398     -152721.12     -152233.44    
     33300   207.71265      37448.108      6724.9433      48.731617      2.3577398     -152716.15     -152224.54    
     33400   205.08016      3169.3125      6724.9433      48.731617      2.3577398     -152714.53     -152229.16    
     33500   196.21712      47278.392      6724.9433      48.731617      2.3577398     -152725.32     -152260.92    
     33600   192.50531     -42967.429      6724.9433      48.731617      2.3577398     -152729.39     -152273.78    
     33700   200.07334      16917.109      6724.9433      48.731617      2.3577398     -152730.55     -152257.03    
     33800   198.54982      37044.575      6724.9433      48.731617      2.3577398     -152711.23     -152241.31    
     33900   199.154       -25703.943      6724.9433      48.731617      2.3577398     -152703.24     -152231.89    
     34000   204.78425      21004.608      6724.9433      48.731617      2.3577398     -152717.44     -152232.76    
     34100   197.9659      -24141.743      6724.9433      48.731617      2.3577398     -152729.5      -152260.96    
     34200   188.04892      27290.616      6724.9433      48.731617      2.3577398     -152729.09     -152284.03    
     34300   194.33919      11908.201      6724.9433      48.731617      2.3577398     -152726.2      -152266.25    
     34400   197.64608      53832.796      6724.9433      48.731617      2.3577398     -152717.91     -152250.12    
     34500   199.72406     -49705.463      6724.9433      48.731617      2.3577398     -152709.34     -152236.64    
     34600   198.52276      46437.419      6724.9433      48.731617      2.3577398     -152698.77     -152228.91    
     34700   212.80257      23291.581      6724.9433      48.731617      2.3577398     -152711.86     -152208.21    
     34800   208.99969      13110.946      6724.9433      48.731617      2.3577398     -152691.72     -152197.07    
     34900   200.27926      5622.6334      6724.9433      48.731617      2.3577398     -152709.87     -152235.86    
     35000   194.74449      13383.864      6724.9433      48.731617      2.3577398     -152711.9      -152250.99    
     35100   194.92032      41236.031      6724.9433      48.731617      2.3577398     -152713.82     -152252.49    
     35200   197.06769     -34421.18       6724.9433      48.731617      2.3577398     -152713.98     -152247.57    
     35300   192.82423      57820.296      6724.9433      48.731617      2.3577398     -152713.92     -152257.55    
     35400   188.32318     -13845.62       6724.9433      48.731617      2.3577398     -152725.26     -152279.54    
     35500   201.48447      25425.073      6724.9433      48.731617      2.3577398     -152756.58     -152279.71    
     35600   211.34245     -6249.6898      6724.9433      48.731617      2.3577398     -152750.22     -152250.02    
     35700   207.55807     -1.1310288      6724.9433      48.731617      2.3577398     -152721.25     -152230.01    
     35800   197.28248     -18648.877      6724.9433      48.731617      2.3577398     -152702.22     -152235.29    
     35900   196.09753      48788.493      6724.9433      48.731617      2.3577398     -152719.73     -152255.62    
     36000   202.54218      12738.384      6724.9433      48.731617      2.3577398     -152740.93     -152261.56    
     36100   197.62955     -39146.421      6724.9433      48.731617      2.3577398     -152727.4      -152259.66    
     36200   195.6009       66686.084      6724.9433      48.731617      2.3577398     -152718.34     -152255.4     
     36300   201.87522     -22574.334      6724.9433      48.731617      2.3577398     -152713.05     -152235.26    
     36400   202.63225      60254.641      6724.9433      48.731617      2.3577398     -152688.9      -152209.32    
     36500   205.37153      30390.142      6724.9433      48.731617      2.3577398     -152702.36     -152216.3     
     36600   202.55378     -14085.51       6724.9433      48.731617      2.3577398     -152739.38     -152259.98    
     36700   197.99395      70659.9        6724.9433      48.731617      2.3577398     -152736.4      -152267.8     
     36800   198.68456     -793.32358      6724.9433      48.731617      2.3577398     -152731.49     -152261.25    
     36900   200.02583      33663.299      6724.9433      48.731617      2.3577398     -152717.87     -152244.45    
     37000   202.56578      7283.9232      6724.9433      48.731617      2.3577398     -152705.1      -152225.67    
     37100   201.73118     -12056.522      6724.9433      48.731617      2.3577398     -152704.22     -152226.77    
     37200   196.16609      33317.408      6724.9433      48.731617      2.3577398     -152732.03     -152267.75    
     37300   199.45677     -26320.356      6724.9433      48.731617      2.3577398     -152740.97     -152268.9     
     37400   193.10667     -6909.6853      6724.9433      48.731617      2.3577398     -152725.88     -152268.85    
     37500   199.99856      30762.02       6724.9433      48.731617      2.3577398     -152727.22     -152253.87    
     37600   206.42839      5753.918       6724.9433      48.731617      2.3577398     -152712.21     -152223.65    
     37700   202.12067      39764.06       6724.9433      48.731617      2.3577398     -152705.98     -152227.61    
     37800   201.47073     -26433.067      6724.9433      48.731617      2.3577398     -152722.02     -152245.19    
     37900   196.28541      29549.302      6724.9433      48.731617      2.3577398     -152719.72     -152255.16    
     38000   198.51372      7833.8192      6724.9433      48.731617      2.3577398     -152720.54     -152250.7     
     38100   206.58311      30540.56       6724.9433      48.731617      2.3577398     -152733.38     -152244.45    
     38200   203.228        41622.923      6724.9433      48.731617      2.3577398     -152722.77     -152241.78    
     38300   203.64634      9321.4504      6724.9433      48.731617      2.3577398     -152726.53     -152244.55    
     38400   190.40585      16987.953      6724.9433      48.731617      2.3577398     -152714.33     -152263.69    
     38500   187.94237      11454.217      6724.9433      48.731617      2.3577398     -152726.84     -152282.02    
     38600   196.11414      18945.864      6724.9433      48.731617      2.3577398     -152738.66     -152274.51    
     38700   208.97791      25258.833      6724.9433      48.731617      2.3577398     -152734.08     -152239.48    
     38800   204.72677      14223.199      6724.9433      48.731617      2.3577398     -152716.28     -152231.74    
     38900   208.10427      41844.695      6724.9433      48.731617      2.3577398     -152733.22     -152240.69    
     39000   194.46223      37734.956      6724.9433      48.731617      2.3577398     -152716.52     -152256.27    
     39100   193.90467     -11109.999      6724.9433      48.731617      2.3577398     -152724.72     -152265.8     
     39200   191.56307      39569.673      6724.9433      48.731617      2.3577398     -152748.72     -152295.33    
     39300   196.22772     -26385.422      6724.9433      48.731617      2.3577398     -152759.34     -152294.92    
     39400   201.455        6476.7536      6724.9433      48.731617      2.3577398     -152738.19     -152261.4     
     39500   198.49936      317.63178      6724.9433      48.731617      2.3577398     -152715.85     -152246.05    
     39600   196.89859      39028.062      6724.9433      48.731617      2.3577398     -152710.43     -152244.42    
     39700   199.94537     -2880.6365      6724.9433      48.731617      2.3577398     -152724.93     -152251.71    
     39800   198.05         61856.439      6724.9433      48.731617      2.3577398     -152746.6      -152277.86    
     39900   186.88244     -20616.439      6724.9433      48.731617      2.3577398     -152730.71     -152288.41    
     40000   202.14349      66411.899      6724.9433      48.731617      2.3577398     -152734.56     -152256.13    
     40100   212.46623      10123.207      6724.9433      48.731617      2.3577398     -152738.65     -152235.8     
     40200   202.26883      4234.0231      6724.9433      48.731617      2.3577398     -152722.82     -152244.1     
     40300   194.77902      7282.3835      6724.9433      48.731617      2.3577398     -152722.85     -152261.85    
     40400   196.29987     -15460.896      6724.9433      48.731617      2.3577398     -152745.45     -152280.86    
     40500   186.97173      52102.608      6724.9433      48.731617      2.3577398     -152744.45     -152301.93    
     40600   194.26315     -5772.3972      6724.9433      48.731617      2.3577398     -152755.96     -152296.18    
     40700   198.90331      22930.123      6724.9433      48.731617      2.3577398     -152732.61     -152261.85    
     40800   205.74545      23667.05       6724.9433      48.731617      2.3577398     -152731.75     -152244.8     
     40900   204.0248      -5070.8792      6724.9433      48.731617      2.3577398     -152724.22     -152241.34    
     41000   201.20015      14534.637      6724.9433      48.731617      2.3577398     -152742.89     -152266.69    
     41100   195.3494       31937.886      6724.9433      48.731617      2.3577398     -152749.2      -152286.85    
     41200   193.63264      42042.387      6724.9433      48.731617      2.3577398     -152734.67     -152276.39    
     41300   199.27947      7102.3229      6724.9433      48.731617      2.3577398     -152732.88     -152261.24    
     41400   203.20935      18714.442      6724.9433      48.731617      2.3577398     -152729.84     -152248.89    
     41500   202.13298      24386.841      6724.9433      48.731617      2.3577398     -152720.25     -152241.85    
     41600   202.4408       31717.739      6724.9433      48.731617      2.3577398     -152722.04     -152242.91    
     41700   189.9087       44984.652      6724.9433      48.731617      2.3577398     -152725.8      -152276.33    
     41800   202.94345     -21356.054      6724.9433      48.731617      2.3577398     -152767.4      -152287.08    
     41900   194.93132      54538.184      6724.9433      48.731617      2.3577398     -152737.19     -152275.84    
     42000   206.40617      16843.884      6724.9433      48.731617      2.3577398     -152728.21     -152239.69    
     42100   201.29879      41979.83       6724.9433      48.731617      2.3577398     -152713.16     -152236.73    
     42200   201.87547      7137.4975      6724.9433      48.731617      2.3577398     -152727.44     -152249.65    
     42300   194.83748      5905.0391      6724.9433      48.731617      2.3577398     -152730.31     -152269.17    
     42400   194.25714      27617.186      6724.9433      48.731617      2.3577398     -152733.64     -152273.87    
     42500   197.9728       8204.8587      6724.9433      48.731617      2.3577398     -152723.8      -152255.25    
     42600   202.50322     -11989.928      6724.9433      48.731617      2.3577398     -152706.38     -152227.1     
     42700   201.69363     -1917.4874      6724.9433      48.731617      2.3577398     -152708.2      -152230.84    
     42800   202.5587      -23.381442      6724.9433      48.731617      2.3577398     -152735.29     -152255.88    
     42900   195.46457      15892.179      6724.9433      48.731617      2.3577398     -152733        -152270.38    
     43000   201.24573      33886.737      6724.9433      48.731617      2.3577398     -152740.21     -152263.91    
     43100   199.6925       11109.511      6724.9433      48.731617      2.3577398     -152732.23     -152259.6     
     43200   207.00238      41216.484      6724.9433      48.731617      2.3577398     -152749.95     -152260.02    
     43300   203.65673      59064.374      6724.9433      48.731617      2.3577398     -152742.04     -152260.03    
     43400   199.46679      1431.6605      6724.9433      48.731617      2.3577398     -152734.03     -152261.94    
     43500   203.37323      19352.849      6724.9433      48.731617      2.3577398     -152735.24     -152253.9     
     43600   205.55579      16401.061      6724.9433      48.731617      2.3577398     -152707.29     -152220.79    
     43700   206.64533      32230.234      6724.9433      48.731617      2.3577398     -152688.21     -152199.13    
     43800   209.7955      -6242.3542      6724.9433      48.731617      2.3577398     -152712.86     -152216.32    
     43900   198.32274      10640.56       6724.9433      48.731617      2.3577398     -152709.88     -152240.49    
     44000   195.03286      23306.515      6724.9433      48.731617      2.3577398     -152717.17     -152255.58    
     44100   204.68991      24710.015      6724.9433      48.731617      2.3577398     -152750.38     -152265.93    
     44200   199.32759     -1868.7372      6724.9433      48.731617      2.3577398     -152740.71     -152268.95    
     44300   202.77915     -2.5097403      6724.9433      48.731617      2.3577398     -152741.57     -152261.64    
     44400   199.07666      60284.921      6724.9433      48.731617      2.3577398     -152711.92     -152240.75    
     44500   211.77047     -21459.575      6724.9433      48.731617      2.3577398     -152723.05     -152221.84    
     44600   200.4819       38946.015      6724.9433      48.731617      2.3577398     -152713.13     -152238.64    
     44700   196.68817      48.595735      6724.9433      48.731617      2.3577398     -152726.43     -152260.92    
     44800   199.94146     -2598.5053      6724.9433      48.731617      2.3577398     -152738.34     -152265.12    
     44900   195.06431      25801.348      6724.9433      48.731617      2.3577398     -152725.13     -152263.46    
     45000   193.32836     -55887.781      6724.9433      48.731617      2.3577398     -152716.69     -152259.13    
     45100   199.61487      54723.292      6724.9433      48.731617      2.3577398     -152724.3      -152251.85    
     45200   197.00621      648.30188      6724.9433      48.731617      2.3577398     -152692.34     -152226.07    
     45300   201.15058      48934.784      6724.9433      48.731617      2.3577398     -152701.17     -152225.1     
     45400   194.93043      5189.7263      6724.9433      48.731617      2.3577398     -152711.38     -152250.02    
     45500   194.86638     -39879.719      6724.9433      48.731617      2.3577398     -152727.54     -152266.33    
     45600   193.28526      39929.023      6724.9433      48.731617      2.3577398     -152725.03     -152267.57    
     45700   200.29869     -38581.396      6724.9433      48.731617      2.3577398     -152734.28     -152260.22    
     45800   194.77086      50011.319      6724.9433      48.731617      2.3577398     -152720.57     -152259.59    
     45900   202.58655     -3113.0721      6724.9433      48.731617      2.3577398     -152736.9      -152257.42    
     46000   190.93443     -21965.041      6724.9433      48.731617      2.3577398     -152716.41     -152264.52    
     46100   188.19814      46184.127      6724.9433      48.731617      2.3577398     -152732.65     -152287.23    
     46200   187.0282      -22788.452      6724.9433      48.731617      2.3577398     -152738.23     -152295.58    
     46300   195.72991      31330.299      6724.9433      48.731617      2.3577398     -152726.3      -152263.05    
     46400   199.65005     -2315.6692      6724.9433      48.731617      2.3577398     -152714.84     -152242.32    
     46500   198.17647     -1432.016       6724.9433      48.731617      2.3577398     -152714.43     -152245.39    
     46600   199.06733      2552.0908      6724.9433      48.731617      2.3577398     -152733.68     -152262.53    
     46700   192.30457     -6743.8652      6724.9433      48.731617      2.3577398     -152738.21     -152283.07    
     46800   187.17366      30188.947      6724.9433      48.731617      2.3577398     -152731.93     -152288.93    
     46900   199.66068      24772.316      6724.9433      48.731617      2.3577398     -152723.85     -152251.3     
     47000   203.90428      19700.515      6724.9433      48.731617      2.3577398     -152714.65     -152232.06    
     47100   209.7838       45862.419      6724.9433      48.731617      2.3577398     -152726.56     -152230.05    
     47200   188.78448     -23395.246      6724.9433      48.731617      2.3577398     -152702.38     -152255.58    
     47300   191.491        22793.122      6724.9433      48.731617      2.3577398     -152728.64     -152275.43    
     47400   204.48586     -32330.481      6724.9433      48.731617      2.3577398     -152751.09     -152267.12    
     47500   195.43832      52335.803      6724.9433      48.731617      2.3577398     -152726.28     -152263.72    
     47600   199.82511      10423.699      6724.9433      48.731617      2.3577398     -152726.94     -152254       
     47700   206.02955      58682.35       6724.9433      48.731617      2.3577398     -152736.31     -152248.69    
     47800   198.2334       31830.807      6724.9433      48.731617      2.3577398     -152725.53     -152256.36    
     47900   199.23578      71130.914      6724.9433      48.731617      2.3577398     -152728.3      -152256.76    
     48000   203.98285     -20576.09       6724.9433      48.731617      2.3577398     -152724.06     -152241.28    
     48100   209.08588      34514.087      6724.9433      48.731617      2.3577398     -152702.5      -152207.64    
     48200   207.9648      -7418.4318      6724.9433      48.731617      2.3577398     -152710.55     -152218.35    
     48300   201.4597       14001.087      6724.9433      48.731617      2.3577398     -152719.58     -152242.78    
     48400   203.06632      22839.436      6724.9433      48.731617      2.3577398     -152732.85     -152252.24    
     48500   199.52318      12312.578      6724.9433      48.731617      2.3577398     -152738.42     -152266.19    
     48600   195.97786      252.37245      6724.9433      48.731617      2.3577398     -152740.15     -152276.32    
     48700   201.67203      20355.751      6724.9433      48.731617      2.3577398     -152735.73     -152258.42    
     48800   199.36616      694.61978      6724.9433      48.731617      2.3577398     -152698.41     -152226.56    
     48900   201.2687       31657.371      6724.9433      48.731617      2.3577398     -152707.56     -152231.21    
     49000   201.64103      10331.947      6724.9433      48.731617      2.3577398     -152727.25     -152250.01    
     49100   194.30759      3177.0988      6724.9433      48.731617      2.3577398     -152720.04     -152260.16    
     49200   203.75637      6351.6544      6724.9433      48.731617      2.3577398     -152739.29     -152257.04    
     49300   200.81032      27683.031      6724.9433      48.731617      2.3577398     -152722.7      -152247.43    
     49400   211.51044      18387.484      6724.9433      48.731617      2.3577398     -152704.18     -152203.59    
     49500   201.25559      2976.0537      6724.9433      48.731617      2.3577398     -152685.14     -152208.82    
     49600   203.79349      6209.8332      6724.9433      48.731617      2.3577398     -152723.19     -152240.86    
     49700   203.88418      2975.2171      6724.9433      48.731617      2.3577398     -152741        -152258.46    
     49800   204.86395      5848.9751      6724.9433      48.731617      2.3577398     -152741.39     -152256.52    
     49900   198.37761      31828.087      6724.9433      48.731617      2.3577398     -152708.02     -152238.51    
     50000   201.98232      1858.5198      6724.9433      48.731617      2.3577398     -152698.23     -152220.18    
     50100   206.27294     -9592.649       6724.9433      48.731617      2.3577398     -152718.04     -152229.84    
     50200   201.20864      1251.3288      6724.9433      48.731617      2.3577398     -152741.25     -152265.04    
     50300   202.7211       40916.615      6724.9433      48.731617      2.3577398     -152748.27     -152268.47    
     50400   208.50436      25493.002      6724.9433      48.731617      2.3577398     -152745.2      -152251.72    
     50500   204.31215      23187.79       6724.9433      48.731617      2.3577398     -152712.99     -152229.44    
     50600   197.66204      9287.6131      6724.9433      48.731617      2.3577398     -152694.13     -152226.31    
     50700   194.88834      25482.352      6724.9433      48.731617      2.3577398     -152724.81     -152263.55    
     50800   198.56705      8869.2068      6724.9433      48.731617      2.3577398     -152749.71     -152279.75    
     50900   203.49912      26851.141      6724.9433      48.731617      2.3577398     -152746.19     -152264.55    
     51000   201.46866     -25579.637      6724.9433      48.731617      2.3577398     -152713.81     -152236.98    
     51100   198.0311      -33426.091      6724.9433      48.731617      2.3577398     -152704.04     -152235.35    
     51200   193.5986       65454.912      6724.9433      48.731617      2.3577398     -152705.98     -152247.78    
     51300   191.65705     -7105.8345      6724.9433      48.731617      2.3577398     -152719.37     -152265.76    
     51400   186.58339      49258.378      6724.9433      48.731617      2.3577398     -152747.21     -152305.61    
     51500   195.75331      46858.393      6724.9433      48.731617      2.3577398     -152759.55     -152296.25    
     51600   196.31489     -3170.0895      6724.9433      48.731617      2.3577398     -152734.77     -152270.14    
     51700   195.0653       1696.995       6724.9433      48.731617      2.3577398     -152712.28     -152250.6     
     51800   192.42651     -6571.0304      6724.9433      48.731617      2.3577398     -152697.32     -152241.89    
     51900   190.4192       39725.724      6724.9433      48.731617      2.3577398     -152689.77     -152239.1     
     52000   202.31134      8503.254       6724.9433      48.731617      2.3577398     -152713.35     -152234.52    
     52100   199.5526       46135.346      6724.9433      48.731617      2.3577398     -152722.68     -152250.39    
     52200   194.37759      23193.415      6724.9433      48.731617      2.3577398     -152733.32     -152273.27    
     52300   196.86655      11616.145      6724.9433      48.731617      2.3577398     -152733.94     -152268       
     52400   194.33864     -11355.572      6724.9433      48.731617      2.3577398     -152700.3      -152240.35    
     52500   197.22638     -23581.011      6724.9433      48.731617      2.3577398     -152698.98     -152232.19    
     52600   197.63418      22235.779      6724.9433      48.731617      2.3577398     -152702.65     -152234.9     
     52700   202.3997      -30754.913      6724.9433      48.731617      2.3577398     -152717.93     -152238.9     
     52800   189.16254      18602.782      6724.9433      48.731617      2.3577398     -152716.28     -152268.57    
     52900   189.94623     -4768.5722      6724.9433      48.731617      2.3577398     -152730.83     -152281.27    
     53000   195.03497     -7517.1934      6724.9433      48.731617      2.3577398     -152728.73     -152267.13    
     53100   195.43332      31120.684      6724.9433      48.731617      2.3577398     -152719.41     -152256.87    
     53200   197.97346     -2405.5528      6724.9433      48.731617      2.3577398     -152711.82     -152243.26    
     53300   200.55638      10353.344      6724.9433      48.731617      2.3577398     -152706.57     -152231.9     
     53400   200.69688     -18439.094      6724.9433      48.731617      2.3577398     -152700.03     -152225.03    
     53500   194.04736      40038.311      6724.9433      48.731617      2.3577398     -152712.47     -152253.21    
     53600   195.85544      12867.621      6724.9433      48.731617      2.3577398     -152735.86     -152272.32    
     53700   196.06202     -5663.5922      6724.9433      48.731617      2.3577398     -152738.39     -152274.36    
     53800   202.29781      48735.511      6724.9433      48.731617      2.3577398     -152730.28     -152251.49    
     53900   205.12266     -22846.446      6724.9433      48.731617      2.3577398     -152713.15     -152227.67    
     54000   195.46398      55062.392      6724.9433      48.731617      2.3577398     -152695.69     -152233.08    
     54100   202.10169     -11457.477      6724.9433      48.731617      2.3577398     -152722.81     -152244.48    
     54200   188.54351      33997.353      6724.9433      48.731617      2.3577398     -152705.39     -152259.16    
     54300   192.74329      15107.556      6724.9433      48.731617      2.3577398     -152711.96     -152255.78    
     54400   198.51644      17012.167      6724.9433      48.731617      2.3577398     -152718.87     -152249.03    
     54500   197.19422     -15350.102      6724.9433      48.731617      2.3577398     -152713.91     -152247.2     
     54600   203.65686      12006.29       6724.9433      48.731617      2.3577398     -152713.77     -152231.76    
     54700   208.08069      21511.695      6724.9433      48.731617      2.3577398     -152704.27     -152211.79    
     54800   203.2364      -1570.812       6724.9433      48.731617      2.3577398     -152695.82     -152214.81    
     54900   196.80903      37259.241      6724.9433      48.731617      2.3577398     -152716        -152250.2     
     55000   195.47746      1439.1801      6724.9433      48.731617      2.3577398     -152726.53     -152263.88    
     55100   190.54424      20441.197      6724.9433      48.731617      2.3577398     -152715.03     -152264.06    
     55200   197.6981       22108.794      6724.9433      48.731617      2.3577398     -152716.34     -152248.44    
     55300   203.50613      5784.0108      6724.9433      48.731617      2.3577398     -152698.84     -152217.19    
     55400   204.31163      17845.043      6724.9433      48.731617      2.3577398     -152691.21     -152207.65    
     55500   199.3582      -17738.164      6724.9433      48.731617      2.3577398     -152714.33     -152242.5     
     55600   198.3636       41077.945      6724.9433      48.731617      2.3577398     -152727.75     -152258.27    
     55700   209.21408     -5363.3954      6724.9433      48.731617      2.3577398     -152751.62     -152256.46    
     55800   201.52469      64293.976      6724.9433      48.731617      2.3577398     -152735.39     -152258.43    
     55900   199.32922      3349.6176      6724.9433      48.731617      2.3577398     -152726.8      -152255.03    
     56000   202.96164      6015.4276      6724.9433      48.731617      2.3577398     -152712.3      -152231.94    
     56100   201.21353      1544.7013      6724.9433      48.731617      2.3577398     -152688.8      -152212.57    
     56200   206.51043      13216.236      6724.9433      48.731617      2.3577398     -152717.94     -152229.18    
     56300   198.60562      24510.486      6724.9433      48.731617      2.3577398     -152728.07     -152258.02    
     56400   202.76317      29202.466      6724.9433      48.731617      2.3577398     -152739.69     -152259.79    
     56500   202.97346      12273.883      6724.9433      48.731617      2.3577398     -152734.09     -152253.7     
     56600   203.35597      21727.169      6724.9433      48.731617      2.3577398     -152723.23     -152241.94    
     56700   206.73806     -7278.8252      6724.9433      48.731617      2.3577398     -152717.18     -152227.88    
     56800   197.72953     -14318.02       6724.9433      48.731617      2.3577398     -152695.73     -152227.75    
     56900   194.89647      30354.551      6724.9433      48.731617      2.3577398     -152712.21     -152250.94    
     57000   194.70033      10258.496      6724.9433      48.731617      2.3577398     -152731.23     -152270.42    
     57100   193.14922      32168.827      6724.9433      48.731617      2.3577398     -152733.5      -152276.36    
     57200   205.56936      42104.807      6724.9433      48.731617      2.3577398     -152734.49     -152247.96    
     57300   205.85857      15535.469      6724.9433      48.731617      2.3577398     -152709.83     -152222.61    
     57400   193.47592      48574.692      6724.9433      48.731617      2.3577398     -152690.54     -152232.63    
     57500   197.98377     -164.38274      6724.9433      48.731617      2.3577398     -152724.35     -152255.77    
     57600   199.3794       68440.936      6724.9433      48.731617      2.3577398     -152736.56     -152264.68    
     57700   204.75516     -11328.285      6724.9433      48.731617      2.3577398     -152732.63     -152248.02    
     57800   211.46129      35444.581      6724.9433      48.731617      2.3577398     -152714.72     -152214.24    
     57900   219.95754      658.76041      6724.9433      48.731617      2.3577398     -152701.4      -152180.82    
     58000   218.98433      16064.545      6724.9433      48.731617      2.3577398     -152681.47     -152163.19    
     58100   209.28326      19311.201      6724.9433      48.731617      2.3577398     -152702.61     -152207.29    
     58200   200.69674      8079.0653      6724.9433      48.731617      2.3577398     -152706.84     -152231.84    
     58300   198.32906      4025.6893      6724.9433      48.731617      2.3577398     -152725        -152255.6     
     58400   191.23245      20124.191      6724.9433      48.731617      2.3577398     -152719.57     -152266.97    
     58500   197.0766       57406.05       6724.9433      48.731617      2.3577398     -152715.1      -152248.66    
     58600   202.64176     -7626.2337      6724.9433      48.731617      2.3577398     -152704.38     -152224.78    
     58700   207.10679      63093.213      6724.9433      48.731617      2.3577398     -152721.92     -152231.75    
     58800   199.15601     -443.17319      6724.9433      48.731617      2.3577398     -152713.92     -152242.56    
     58900   205.80966      11815.541      6724.9433      48.731617      2.3577398     -152737.8      -152250.69    
     59000   205.90698      45900.952      6724.9433      48.731617      2.3577398     -152741.84     -152254.51    
     59100   204.13608      16995.972      6724.9433      48.731617      2.3577398     -152736.56     -152253.42    
     59200   202.65531      36149.425      6724.9433      48.731617      2.3577398     -152722.45     -152242.81    
     59300   201.46034     -7199.688       6724.9433      48.731617      2.3577398     -152711.27     -152234.46    
     59400   208.56442      12631.733      6724.9433      48.731617      2.3577398     -152729.15     -152235.53    
     59500   204.29299      23113.927      6724.9433      48.731617      2.3577398     -152742.46     -152258.94    
     59600   187.35732      25170.807      6724.9433      48.731617      2.3577398     -152720.52     -152277.09    
     59700   196.18054      19718.681      6724.9433      48.731617      2.3577398     -152734.37     -152270.06    
     59800   203.35952     -17265.182      6724.9433      48.731617      2.3577398     -152710.08     -152228.77    
     59900   207.25157      28140.698      6724.9433      48.731617      2.3577398     -152709.44     -152218.92    
     60000   204.96589      21099.969      6724.9433      48.731617      2.3577398     -152715.41     -152230.3     
     60100   204.19068      21258.693      6724.9433      48.731617      2.3577398     -152736.1      -152252.83    
     60200   199.55645      51727.256      6724.9433      48.731617      2.3577398     -152737.63     -152265.33    
     60300   203.19706      27265.442      6724.9433      48.731617      2.3577398     -152742.86     -152261.94    
     60400   196.21435      23883.348      6724.9433      48.731617      2.3577398     -152721.54     -152257.15    
     60500   204.18507      12911.073      6724.9433      48.731617      2.3577398     -152736.09     -152252.83    
     60600   201.30959      55151.338      6724.9433      48.731617      2.3577398     -152721.81     -152245.36    
     60700   204.90458      10331.67       6724.9433      48.731617      2.3577398     -152707.25     -152222.29    
     60800   220.35746      5915.0763      6724.9433      48.731617      2.3577398     -152717.96     -152196.42    
     60900   206.64418      37988.89       6724.9433      48.731617      2.3577398     -152716.68     -152227.61    
     61000   200.4353      -15599.912      6724.9433      48.731617      2.3577398     -152720.24     -152245.85    
     61100   198.79639      66361.692      6724.9433      48.731617      2.3577398     -152724.2      -152253.69    
     61200   196.45524      12088.518      6724.9433      48.731617      2.3577398     -152729.91     -152264.94    
     61300   198.2642       16590.632      6724.9433      48.731617      2.3577398     -152736.25     -152267.01    
     61400   205.51786     -21629.82       6724.9433      48.731617      2.3577398     -152727.99     -152241.58    
     61500   201.90788      12794.675      6724.9433      48.731617      2.3577398     -152701.16     -152223.29    
     61600   202.09725     -15253.328      6724.9433      48.731617      2.3577398     -152697.4      -152219.08    
     61700   202.44808      23760.811      6724.9433      48.731617      2.3577398     -152730.6      -152251.46    
     61800   199.79888      34989.702      6724.9433      48.731617      2.3577398     -152740.42     -152267.54    
     61900   199.49843      32020.441      6724.9433      48.731617      2.3577398     -152736.33     -152264.16    
     62000   204.18057      26766.918      6724.9433      48.731617      2.3577398     -152731.65     -152248.4     
     62100   204.66836      4585.3714      6724.9433      48.731617      2.3577398     -152700.18     -152215.78    
     62200   208.36051      41315.714      6724.9433      48.731617      2.3577398     -152702.79     -152209.65    
     62300   198.00169      52381.338      6724.9433      48.731617      2.3577398     -152695.13     -152226.5     
     62400   198.6097      -9156.4917      6724.9433      48.731617      2.3577398     -152711.22     -152241.16    
     62500   194.05958      23050.425      6724.9433      48.731617      2.3577398     -152711.83     -152252.54    
     62600   200.38673     -44590.011      6724.9433      48.731617      2.3577398     -152727.41     -152253.14    
     62700   194.51572      15009.488      6724.9433      48.731617      2.3577398     -152713.96     -152253.59    
     62800   199.16218      15795.52       6724.9433      48.731617      2.3577398     -152724.16     -152252.79    
     62900   194.1986      -8685.8982      6724.9433      48.731617      2.3577398     -152700.56     -152240.94    
     63000   202.82049      37218.354      6724.9433      48.731617      2.3577398     -152705.45     -152225.42    
     63100   203.64197     -17192.96       6724.9433      48.731617      2.3577398     -152704.41     -152222.44    
     63200   204.26078      41010.142      6724.9433      48.731617      2.3577398     -152725.91     -152242.48    
     63300   200.16731      34229.842      6724.9433      48.731617      2.3577398     -152741.66     -152267.91    
     63400   193.73299     -6386.3906      6724.9433      48.731617      2.3577398     -152727.53     -152269.01    
     63500   191.94072      28119.394      6724.9433      48.731617      2.3577398     -152698.85     -152244.58    
     63600   195.86642      29269.688      6724.9433      48.731617      2.3577398     -152683.87     -152220.3     
     63700   203.72335      21388.006      6724.9433      48.731617      2.3577398     -152708.09     -152225.92    
     63800   205.11284      9431.5561      6724.9433      48.731617      2.3577398     -152728.3      -152242.85    
     63900   196.48049     -5423.29        6724.9433      48.731617      2.3577398     -152721.22     -152256.2     
     64000   200.42161      44981.439      6724.9433      48.731617      2.3577398     -152730.74     -152256.39    
     64100   201.22004      2610.7604      6724.9433      48.731617      2.3577398     -152701.91     -152225.67    
     64200   208.69346      32704.797      6724.9433      48.731617      2.3577398     -152700.39     -152206.46    
     64300   198.30107     -9586.3072      6724.9433      48.731617      2.3577398     -152691.34     -152222.01    
     64400   205.14489     -21016.282      6724.9433      48.731617      2.3577398     -152731.05     -152245.52    
     64500   194.91127      71343.543      6724.9433      48.731617      2.3577398     -152720.11     -152258.8     
[...]
    384200   208.26256      20506.348      6724.9433      48.731617      2.3577398     -152814.3      -152321.4     
    384300   205.21541      22787.949      6724.9433      48.731617      2.3577398     -152822.43     -152336.73    
    384400   195.57858      41085.992      6724.9433      48.731617      2.3577398     -152826.28     -152363.39    
    384500   199.3079      -5154.9695      6724.9433      48.731617      2.3577398     -152830.37     -152358.66    
    384600   205.96866      36491.589      6724.9433      48.731617      2.3577398     -152800.27     -152312.79    
    384700   200.94153      46755.205      6724.9433      48.731617      2.3577398     -152781.34     -152305.76    
    384800   199.75119     -15907.2        6724.9433      48.731617      2.3577398     -152797.61     -152324.84    
    384900   200.64517      38187.186      6724.9433      48.731617      2.3577398     -152821.6      -152346.72    
    385000   192.65234      24084.239      6724.9433      48.731617      2.3577398     -152812.86     -152356.9     
    385100   191.31449      10548.214      6724.9433      48.731617      2.3577398     -152809.85     -152357.05    
    385200   197.04615      9198.1358      6724.9433      48.731617      2.3577398     -152803.68     -152337.31    
    385300   200.85825      37405.384      6724.9433      48.731617      2.3577398     -152776.38     -152301       
    385400   202.43069     -11762.481      6724.9433      48.731617      2.3577398     -152792.71     -152313.6     
    385500   201.12554      40053.242      6724.9433      48.731617      2.3577398     -152817.91     -152341.89    
    385600   198.45398      13375.645      6724.9433      48.731617      2.3577398     -152822.23     -152352.54    
    385700   198.99588     -4043.3446      6724.9433      48.731617      2.3577398     -152820.75     -152349.78    
    385800   202.48791      72703.188      6724.9433      48.731617      2.3577398     -152816.47     -152337.23    
    385900   207.77252     -4250.8711      6724.9433      48.731617      2.3577398     -152799.5      -152307.75    
    386000   204.48564      15660.655      6724.9433      48.731617      2.3577398     -152785.66     -152301.69    
    386100   196.09301      8162.5473      6724.9433      48.731617      2.3577398     -152801.95     -152337.84    
    386200   201.80163      9155.8837      6724.9433      48.731617      2.3577398     -152828.59     -152350.98    
    386300   199.43002      30292.571      6724.9433      48.731617      2.3577398     -152821.64     -152349.63    
    386400   204.98857      7308.1922      6724.9433      48.731617      2.3577398     -152815.83     -152330.67    
    386500   210.306        16492.761      6724.9433      48.731617      2.3577398     -152817.12     -152319.37    
    386600   194.98969      32694.897      6724.9433      48.731617      2.3577398     -152810.64     -152349.15    
    386700   195.45965      4892.1665      6724.9433      48.731617      2.3577398     -152827.98     -152365.37    
    386800   195.49851      10020.018      6724.9433      48.731617      2.3577398     -152822.49     -152359.79    
    386900   207.57194      11607.382      6724.9433      48.731617      2.3577398     -152823.76     -152332.48    
    387000   213.35036      1948.702       6724.9433      48.731617      2.3577398     -152828.21     -152323.26    
    387100   206.5143       68096.197      6724.9433      48.731617      2.3577398     -152821.91     -152333.14    
    387200   207.27191      19143.935      6724.9433      48.731617      2.3577398     -152828.9      -152338.34    
    387300   206.33308     -7766.99        6724.9433      48.731617      2.3577398     -152831.82     -152343.48    
    387400   199.52284      8976.1227      6724.9433      48.731617      2.3577398     -152819.99     -152347.77    
    387500   204.47791     -16215.668      6724.9433      48.731617      2.3577398     -152834.16     -152350.21    
    387600   206.37864      31235.225      6724.9433      48.731617      2.3577398     -152838.27     -152349.82    
    387700   204.64287      14112.61       6724.9433      48.731617      2.3577398     -152831.85     -152347.51    
    387800   205.18001      58818.721      6724.9433      48.731617      2.3577398     -152822.98     -152337.36    
    387900   206.34076      18145          6724.9433      48.731617      2.3577398     -152810.88     -152322.52    
    388000   205.01338      1411.2265      6724.9433      48.731617      2.3577398     -152811.19     -152325.98    
    388100   196.52608      27542.425      6724.9433      48.731617      2.3577398     -152819.16     -152354.03    
    388200   192.9171      -14324.296      6724.9433      48.731617      2.3577398     -152823.51     -152366.92    
    388300   193.60731      54827.387      6724.9433      48.731617      2.3577398     -152812.58     -152354.36    
    388400   198.66804      9984.6414      6724.9433      48.731617      2.3577398     -152786.75     -152316.55    
    388500   204.10065     -7391.4448      6724.9433      48.731617      2.3577398     -152800.69     -152317.63    
    388600   203.9891       47325.814      6724.9433      48.731617      2.3577398     -152815.98     -152333.19    
    388700   198.88318     -3741.1809      6724.9433      48.731617      2.3577398     -152819.99     -152349.28    
    388800   193.94827     -6171.5689      6724.9433      48.731617      2.3577398     -152819.16     -152360.13    
    388900   197.14886      60417.918      6724.9433      48.731617      2.3577398     -152828.37     -152361.77    
    389000   199.86455     -22201.095      6724.9433      48.731617      2.3577398     -152812.41     -152339.38    
    389100   210.97115      14620.082      6724.9433      48.731617      2.3577398     -152819.81     -152320.49    
    389200   204.74896      23897.725      6724.9433      48.731617      2.3577398     -152801.62     -152317.03    
    389300   203.47135      21991.344      6724.9433      48.731617      2.3577398     -152824.16     -152342.59    
    389400   193.42526      34205.618      6724.9433      48.731617      2.3577398     -152823.35     -152365.55    
    389500   200.16679      24864.902      6724.9433      48.731617      2.3577398     -152832.29     -152358.54    
    389600   201.31984      39238.175      6724.9433      48.731617      2.3577398     -152823.27     -152346.79    
    389700   208.09754      21257.817      6724.9433      48.731617      2.3577398     -152817.23     -152324.71    
    389800   204.09316      5669.1364      6724.9433      48.731617      2.3577398     -152789.14     -152306.1     
    389900   209.07114      19579.463      6724.9433      48.731617      2.3577398     -152781.59     -152286.77    
    390000   200.12638     -13756.041      6724.9433      48.731617      2.3577398     -152786.97     -152313.32    
    390100   198.03565      43521.684      6724.9433      48.731617      2.3577398     -152808.58     -152339.88    
    390200   199.73112     -8600.6139      6724.9433      48.731617      2.3577398     -152821.88     -152349.16    
    390300   196.88906      28885.95       6724.9433      48.731617      2.3577398     -152816.46     -152350.47    
    390400   202.25744     -7690.4152      6724.9433      48.731617      2.3577398     -152806.74     -152328.04    
    390500   194.11417      21669.013      6724.9433      48.731617      2.3577398     -152769.29     -152309.87    
    390600   203.32996     -17783.396      6724.9433      48.731617      2.3577398     -152804.61     -152323.38    
    390700   196.5229       8267.4911      6724.9433      48.731617      2.3577398     -152822.95     -152357.82    
    390800   196.71994      25834.788      6724.9433      48.731617      2.3577398     -152826.63     -152361.04    
    390900   197.23087      27383.933      6724.9433      48.731617      2.3577398     -152813.67     -152346.87    
    391000   199.31667      15641.26       6724.9433      48.731617      2.3577398     -152801.24     -152329.51    
    391100   198.36213      28323.53       6724.9433      48.731617      2.3577398     -152785.12     -152315.65    
    391200   199.7475      -26694.985      6724.9433      48.731617      2.3577398     -152787.16     -152314.4     
    391300   204.27386      26135.225      6724.9433      48.731617      2.3577398     -152821.3      -152337.83    
    391400   195.64685      12547.433      6724.9433      48.731617      2.3577398     -152825.54     -152362.49    
    391500   196.97459      40714.121      6724.9433      48.731617      2.3577398     -152824.08     -152357.89    
    391600   197.75517     -12398.035      6724.9433      48.731617      2.3577398     -152801.44     -152333.4     
    391700   203.72079      45692.845      6724.9433      48.731617      2.3577398     -152799.59     -152317.43    
    391800   199.68557     -35335.57       6724.9433      48.731617      2.3577398     -152797.74     -152325.14    
    391900   201.77709      78237.845      6724.9433      48.731617      2.3577398     -152806.66     -152329.1     
    392000   205.81852     -53818.536      6724.9433      48.731617      2.3577398     -152823.94     -152336.82    
    392100   198.96194      30638.528      6724.9433      48.731617      2.3577398     -152827.19     -152356.29    
    392200   195.47457      55170.045      6724.9433      48.731617      2.3577398     -152825.8      -152363.16    
    392300   202.60654     -45444.119      6724.9433      48.731617      2.3577398     -152811.69     -152332.17    
    392400   207.52125      73191.217      6724.9433      48.731617      2.3577398     -152802.42     -152311.27    
    392500   212.02095     -30760.43       6724.9433      48.731617      2.3577398     -152816.54     -152314.74    
    392600   199.60309      26722.119      6724.9433      48.731617      2.3577398     -152812.16     -152339.74    
    392700   197.66788     -19665.244      6724.9433      48.731617      2.3577398     -152819.69     -152351.86    
    392800   202.14684      39288.833      6724.9433      48.731617      2.3577398     -152829.23     -152350.8     
    392900   202.60855      18719.513      6724.9433      48.731617      2.3577398     -152815.21     -152335.68    
    393000   202.32148      38378.873      6724.9433      48.731617      2.3577398     -152794.73     -152315.88    
    393100   215.23441      9901.2448      6724.9433      48.731617      2.3577398     -152786.92     -152277.51    
    393200   211.58876      5864.6013      6724.9433      48.731617      2.3577398     -152796.02     -152295.24    
    393300   201.21509      16614.032      6724.9433      48.731617      2.3577398     -152799.49     -152323.26    
    393400   202.82471      33865.35       6724.9433      48.731617      2.3577398     -152815.27     -152335.23    
    393500   192.40528      15405.865      6724.9433      48.731617      2.3577398     -152804.56     -152349.18    
    393600   190.02561      34266.444      6724.9433      48.731617      2.3577398     -152804.6      -152354.85    
    393700   202.51637     -1101.3186      6724.9433      48.731617      2.3577398     -152812.81     -152333.5     
    393800   212.09232      44206.049      6724.9433      48.731617      2.3577398     -152812.19     -152310.22    
    393900   205.9323       33440.532      6724.9433      48.731617      2.3577398     -152805.02     -152317.63    
    394000   200.03515     -1341.2009      6724.9433      48.731617      2.3577398     -152820.28     -152346.85    
    394100   194.69781      996.36432      6724.9433      48.731617      2.3577398     -152832.72     -152371.91    
    394200   196.04635      28487.973      6724.9433      48.731617      2.3577398     -152831.99     -152367.99    
    394300   195.36968      3022.5736      6724.9433      48.731617      2.3577398     -152817.64     -152355.25    
    394400   205.74032      25087.016      6724.9433      48.731617      2.3577398     -152815.86     -152328.92    
    394500   210.83884      34703.976      6724.9433      48.731617      2.3577398     -152819.04     -152320.03    
    394600   201.66337      43905.824      6724.9433      48.731617      2.3577398     -152807.27     -152329.98    
    394700   196.72257      26756.339      6724.9433      48.731617      2.3577398     -152806.43     -152340.83    
    394800   198.94246      7490.6458      6724.9433      48.731617      2.3577398     -152835.77     -152364.92    
    394900   191.34672      37938.786      6724.9433      48.731617      2.3577398     -152844.84     -152391.96    
    395000   194.19956     -23930.418      6724.9433      48.731617      2.3577398     -152827.6      -152367.97    
    395100   199.53374      34040.406      6724.9433      48.731617      2.3577398     -152818.35     -152346.1     
    395200   204.61763      44868.484      6724.9433      48.731617      2.3577398     -152821.63     -152337.35    
    395300   205.20222      26972.935      6724.9433      48.731617      2.3577398     -152813.61     -152327.95    
    395400   202.63557      10190.148      6724.9433      48.731617      2.3577398     -152803.18     -152323.59    
    395500   202.91448     -7533.9831      6724.9433      48.731617      2.3577398     -152819.92     -152339.67    
    395600   200.07982      44654.782      6724.9433      48.731617      2.3577398     -152831.96     -152358.42    
    395700   199.63206     -8391.3948      6724.9433      48.731617      2.3577398     -152831.11     -152358.63    
    395800   201.11182      35790.818      6724.9433      48.731617      2.3577398     -152812.09     -152336.1     
    395900   203.78162     -15034.165      6724.9433      48.731617      2.3577398     -152791.44     -152309.13    
    396000   211.20962      62802.873      6724.9433      48.731617      2.3577398     -152814.61     -152314.73    
    396100   209.28116     -17818.2        6724.9433      48.731617      2.3577398     -152831.38     -152336.06    
    396200   193.39309      6764.9871      6724.9433      48.731617      2.3577398     -152803.78     -152346.06    
    396300   193.96808      6711.9882      6724.9433      48.731617      2.3577398     -152805.39     -152346.31    
    396400   204.75716      51696.594      6724.9433      48.731617      2.3577398     -152827.72     -152343.1     
    396500   197.6988      -7842.2863      6724.9433      48.731617      2.3577398     -152814.84     -152346.94    
    396600   199.86173      41720.196      6724.9433      48.731617      2.3577398     -152797.84     -152324.82    
    396700   207.63471      5314.3025      6724.9433      48.731617      2.3577398     -152790.96     -152299.54    
    396800   205.05207     -6999.8105      6724.9433      48.731617      2.3577398     -152791.16     -152305.85    
    396900   201.96482      33318.681      6724.9433      48.731617      2.3577398     -152815.79     -152337.79    
    397000   202.60369     -22560.54       6724.9433      48.731617      2.3577398     -152831.02     -152351.5     
    397100   193.5626       25967.171      6724.9433      48.731617      2.3577398     -152812.85     -152354.73    
    397200   203.81273     -10576.382      6724.9433      48.731617      2.3577398     -152819.03     -152336.66    
    397300   212.3063       24130.093      6724.9433      48.731617      2.3577398     -152816.7      -152314.22    
    397400   207.96205      32533.453      6724.9433      48.731617      2.3577398     -152807.91     -152315.72    
    397500   212.38135      3118.2403      6724.9433      48.731617      2.3577398     -152824.93     -152322.27    
    397600   208.87037      17445.852      6724.9433      48.731617      2.3577398     -152826.12     -152331.77    
    397700   203.69804      28468.82       6724.9433      48.731617      2.3577398     -152819.99     -152337.89    
    397800   203.26129      16249.394      6724.9433      48.731617      2.3577398     -152826.67     -152345.6     
    397900   189.89534      52655.1        6724.9433      48.731617      2.3577398     -152824.13     -152374.69    
    398000   184.6318       22383.271      6724.9433      48.731617      2.3577398     -152825.25     -152388.27    
    398100   196.93528      16164.546      6724.9433      48.731617      2.3577398     -152828.35     -152362.25    
    398200   201.3362       8251.3115      6724.9433      48.731617      2.3577398     -152819.38     -152342.86    
    398300   201.4081      -28528.915      6724.9433      48.731617      2.3577398     -152817.95     -152341.27    
    398400   196.14512      45789.889      6724.9433      48.731617      2.3577398     -152812.7      -152348.47    
    398500   198.21375     -31014.838      6724.9433      48.731617      2.3577398     -152820.47     -152351.34    
    398600   192.44782      40997.536      6724.9433      48.731617      2.3577398     -152807.63     -152352.15    
    398700   197.97341      10265.544      6724.9433      48.731617      2.3577398     -152815.17     -152346.62    
    398800   208.51422      53374.986      6724.9433      48.731617      2.3577398     -152824.22     -152330.71    
    398900   218.67774      16918.289      6724.9433      48.731617      2.3577398     -152834.64     -152317.08    
    399000   207.10954     -4073.1767      6724.9433      48.731617      2.3577398     -152816.65     -152326.47    
    399100   194.83763      42971.496      6724.9433      48.731617      2.3577398     -152819.46     -152358.32    
    399200   198.94817     -26972.664      6724.9433      48.731617      2.3577398     -152833.73     -152362.87    
    399300   201.41834      53635.481      6724.9433      48.731617      2.3577398     -152825.1      -152348.39    
    399400   207.09789     -29633.27       6724.9433      48.731617      2.3577398     -152809.24     -152319.09    
    399500   212.59669      13131.127      6724.9433      48.731617      2.3577398     -152801.34     -152298.17    
    399600   203.49386      32773.071      6724.9433      48.731617      2.3577398     -152791.8      -152310.18    
    399700   209.13252      4750.0577      6724.9433      48.731617      2.3577398     -152812.97     -152318       
    399800   190.04863     -15190.755      6724.9433      48.731617      2.3577398     -152789.86     -152340.06    
    399900   200.45709      3305.7113      6724.9433      48.731617      2.3577398     -152830.46     -152356.03    
    400000   189.90124      38024.889      6724.9433      48.731617      2.3577398     -152816.67     -152367.22    
    400011   194.39309      40063.381      6724.9433      48.731617      2.3577398     -152826.88     -152366.79    
Loop time of 15492.2 on 64 procs for 400000 steps with 795 atoms

Performance: 0.558 ns/day, 43.034 hours/ns, 25.819 timesteps/s
99.6% CPU use with 64 MPI tasks x 1 OpenMP threads

MPI task timing breakdown:
Section |  min time  |  avg time  |  max time  |%varavg| %total
---------------------------------------------------------------
Pair    | 8707.6     | 11072      | 14087      |1449.1 | 71.47
Neigh   | 42.972     | 55.524     | 69.188     |  97.2 |  0.36
Comm    | 163.95     | 2794.9     | 5476.9     |2648.4 | 18.04
Output  | 0.5144     | 1.2847     | 1.8819     |  44.2 |  0.01
Modify  | 1163.9     | 1565.8     | 2368.7     |1027.9 | 10.11
Other   |            | 2.938      |            |       |  0.02

Nlocal:        12.4219 ave          16 max           8 min
Histogram: 1 0 15 3 0 17 8 6 12 2
Nghost:        2189.45 ave        2503 max        1902 min
Histogram: 5 7 4 8 13 11 0 6 5 5
Neighs:        6838.78 ave        9069 max        3526 min
Histogram: 1 2 8 6 9 7 7 6 4 14

Total # of neighbors = 437682
Ave neighs/atom = 550.5434
Neighbor list builds = 5168
Dangerous builds = 0

write_data graphene_single_layer_ReaxFF_750_C_temp_200K.data ### MODIFY FILE NAME ###
System init for write_data ...
Total wall time: 4:18:14
