
# System definition
read_data graphene_single_layer_x-45_y-45_795_C.data ### MODIFY FILE NAME ###
Reading data file ...
  orthogonal box = (-1.4464652 -1.4423034 -1.42) to (47.285152 47.149102 1.42)
  8 by 8 by 1 MPI processor grid
  reading atoms ...
  795 atoms
  reading velocities ...
  795 velocities
  read_data CPU = 0.045 seconds

pair_style reax/c NULL
pair_coeff * * ffield.reax.cho C
Reading potential file ffield.reax.cho with DATE: 2011-02-18
fix qeq_reax all qeq/reax 1 0.0 10.0 1.0e-6 reax/c


# Minimization
timestep 0.25
min_style cg
thermo 100
thermo_style custom step temp press vol lx density pe etotal
dump 2 all custom 1000 graphene_single_layer_ReaxFF_795_C_temp_10K.lammpstrj id type x y z ### MODIFY FILE NAME ###
minimize 1.0e-6 1.0e-6 100 1000

CITE-CITE-CITE-CITE-CITE-CITE-CITE-CITE-CITE-CITE-CITE-CITE-CITE

Your simulation uses code contributions which should be cited:

- pair reaxff command:

@Article{Aktulga12,
 author = {H. M. Aktulga, J. C. Fogarty, S. A. Pandit, A. Y. Grama},
 title = {Parallel reactive molecular dynamics: Numerical methods and algorithmic techniques},
 journal = {Parallel Computing},
 year =    2012,
 volume =  38,
 pages =   {245--259}
}

- fix qeq/reaxff command:

@Article{Aktulga12,
 author = {H. M. Aktulga, J. C. Fogarty, S. A. Pandit, A. Y. Grama},
 title = {Parallel reactive molecular dynamics: Numerical methods and algorithmic techniques},
 journal = {Parallel Computing},
 year =    2012,
 volume =  38,
 pages =   {245--259}
}

CITE-CITE-CITE-CITE-CITE-CITE-CITE-CITE-CITE-CITE-CITE-CITE-CITE

WARNING: Using 'neigh_modify every 1 delay 0 check yes' setting during minimization (src/min.cpp:187)
Neighbor list info ...
  update every 1 steps, delay 0 steps, check yes
  max neighbors/atom: 10000, page size: 100000
  master list distance cutoff = 10.4
  ghost atom cutoff = 10.4
  binsize = 5.2, bins = 10 10 1
  2 neighbor lists, perpetual/occasional/extra = 2 0 0
  (1) pair reax/c, perpetual
      attributes: half, newton off, ghost
      pair build: half/bin/newtoff/ghost
      stencil: full/ghost/bin/3d
      bin: standard
  (2) fix qeq/reax, perpetual, copy from (1)
      attributes: half, newton off
      pair build: copy
      stencil: none
      bin: none
Per MPI rank memory allocation (min/avg/max) = 36.37 | 41.41 | 47.38 Mbytes
   Step          Temp          Press          Volume           Lx          Density         PotEng         TotEng    
         0   923            34054.396      6724.9433      48.731617      2.3577398     -151766.67     -149582.14    
        11   923            35396.792      6724.9433      48.731617      2.3577398     -151904.55     -149720.03    
Loop time of 2.14119 on 64 procs for 11 steps with 795 atoms

98.2% CPU use with 64 MPI tasks x 1 OpenMP threads

Minimization stats:
  Stopping criterion = energy tolerance
  Energy initial, next-to-last, final = 
     -151766.666472543  -151904.508881892  -151904.547898656
  Force two-norm initial, final = 279.94165 356.09863
  Force max component initial, final = 137.99181 55.448555
  Final line search alpha, max atom move = 0.00038853166 0.021543519
  Iterations, force evaluations = 11 32

MPI task timing breakdown:
Section |  min time  |  avg time  |  max time  |%varavg| %total
---------------------------------------------------------------
Pair    | 0.96832    | 1.3297     | 1.6477     |  15.3 | 62.10
Neigh   | 0.014462   | 0.018689   | 0.02388    |   1.8 |  0.87
Comm    | 0.10816    | 0.40274    | 0.72127    |  24.2 | 18.81
Output  | 0          | 0          | 0          |   0.0 |  0.00
Modify  | 0.31095    | 0.31633    | 0.32064    |   0.4 | 14.77
Other   |            | 0.07374    |            |       |  3.44

Nlocal:        12.4219 ave          15 max          10 min
Histogram: 15 0 0 0 22 0 12 0 0 15
Nghost:        2194.12 ave        2559 max        1869 min
Histogram: 2 8 9 4 12 12 5 4 6 2
Neighs:        6807.34 ave        8856 max        4476 min
Histogram: 4 8 3 7 7 13 5 2 0 15

Total # of neighbors = 435670
Ave neighs/atom = 548.01258
Neighbor list builds = 1
Dangerous builds = 0

fix 1 all nvt temp 10.0 10.0 $(100.0*dt)  ### MODIFY INIT TEMP, FINAL TEMP ###
fix 1 all nvt temp 10.0 10.0 25  
run 400000
Per MPI rank memory allocation (min/avg/max) = 35.25 | 40.29 | 46.26 Mbytes
   Step          Temp          Press          Volume           Lx          Density         PotEng         TotEng    
        11   923            35396.792      6724.9433      48.731617      2.3577398     -151904.55     -149720.03    
       100   166.02946      68506.984      6724.9433      48.731617      2.3577398     -151715.11     -151322.16    
       200   67.018743      22021.597      6724.9433      48.731617      2.3577398     -152229.64     -152071.02    
       300   82.049641      12953.358      6724.9433      48.731617      2.3577398     -152550.48     -152356.29    
       400   37.19069       7757.0382      6724.9433      48.731617      2.3577398     -152625.29     -152537.27    
       500   25.554073      27257.073      6724.9433      48.731617      2.3577398     -152725.9      -152665.42    
       600   12.54083       11709.089      6724.9433      48.731617      2.3577398     -152744.31     -152714.63    
       700   10.5559        33885.917      6724.9433      48.731617      2.3577398     -152762.14     -152737.16    
       800   6.9188792      15742.92       6724.9433      48.731617      2.3577398     -152762.37     -152745.99    
       900   7.3948705      21791.264      6724.9433      48.731617      2.3577398     -152763.71     -152746.21    
      1000   9.6701844      24386.751      6724.9433      48.731617      2.3577398     -152761.94     -152739.05    
      1100   12.625947      12285.891      6724.9433      48.731617      2.3577398     -152760.72     -152730.84    
      1200   10.952408      19717.547      6724.9433      48.731617      2.3577398     -152756.42     -152730.5     
      1300   8.8887775      20949.353      6724.9433      48.731617      2.3577398     -152757.19     -152736.15    
      1400   8.3829927      22551.198      6724.9433      48.731617      2.3577398     -152759.32     -152739.48    
      1500   9.9045363      18517.614      6724.9433      48.731617      2.3577398     -152760.91     -152737.46    
      1600   10.706301      11734.694      6724.9433      48.731617      2.3577398     -152757.14     -152731.8     
      1700   11.101985      29540.801      6724.9433      48.731617      2.3577398     -152754.63     -152728.36    
      1800   11.157747      13369.495      6724.9433      48.731617      2.3577398     -152757.97     -152731.56    
      1900   9.6809817      45958.99       6724.9433      48.731617      2.3577398     -152761.17     -152738.26    
      2000   8.6383572      9134.1892      6724.9433      48.731617      2.3577398     -152762.72     -152742.27    
      2100   8.6075152      26564.964      6724.9433      48.731617      2.3577398     -152761.87     -152741.5     
      2200   10.293426      14636.76       6724.9433      48.731617      2.3577398     -152760.63     -152736.26    
      2300   10.805603      14605.498      6724.9433      48.731617      2.3577398     -152756.7      -152731.12    
      2400   10.910437      28811.504      6724.9433      48.731617      2.3577398     -152756.53     -152730.71    
      2500   10.176026      10857.057      6724.9433      48.731617      2.3577398     -152758.34     -152734.26    
      2600   8.7226096      38411.799      6724.9433      48.731617      2.3577398     -152757.96     -152737.32    
      2700   9.7939821      6058.4363      6724.9433      48.731617      2.3577398     -152760.04     -152736.86    
      2800   10.566321      27663.707      6724.9433      48.731617      2.3577398     -152759.34     -152734.33    
      2900   11.153134      20914.211      6724.9433      48.731617      2.3577398     -152759.1      -152732.71    
      3000   10.524388      16812.246      6724.9433      48.731617      2.3577398     -152759.13     -152734.22    
      3100   9.4696772      27268.27       6724.9433      48.731617      2.3577398     -152760.23     -152737.81    
      3200   9.6532042      10370.492      6724.9433      48.731617      2.3577398     -152762.2      -152739.36    
      3300   9.5790355      37216.428      6724.9433      48.731617      2.3577398     -152760.28     -152737.6     
      3400   10.508873      8380.9282      6724.9433      48.731617      2.3577398     -152759.24     -152734.37    
      3500   10.847149      26077.501      6724.9433      48.731617      2.3577398     -152757.89     -152732.22    
      3600   10.583158      9877.5751      6724.9433      48.731617      2.3577398     -152759.09     -152734.04    
      3700   9.4015778      21824.267      6724.9433      48.731617      2.3577398     -152759.3      -152737.04    
      3800   9.2517654      26885.589      6724.9433      48.731617      2.3577398     -152760.01     -152738.12    
      3900   9.9886346      8777.2892      6724.9433      48.731617      2.3577398     -152759.85     -152736.21    
      4000   10.282089      35645.138      6724.9433      48.731617      2.3577398     -152757.44     -152733.1     
      4100   10.579845      6329.1632      6724.9433      48.731617      2.3577398     -152757.22     -152732.18    
      4200   9.9206897      31258.467      6724.9433      48.731617      2.3577398     -152758.21     -152734.73    
      4300   9.2652171      17839.567      6724.9433      48.731617      2.3577398     -152760.02     -152738.09    
      4400   9.2771913      26114.595      6724.9433      48.731617      2.3577398     -152761.38     -152739.43    
      4500   9.8307062      22045.285      6724.9433      48.731617      2.3577398     -152761.25     -152737.98    
      4600   10.341749      13637.595      6724.9433      48.731617      2.3577398     -152759.68     -152735.21    
      4700   10.735329      38503.533      6724.9433      48.731617      2.3577398     -152759.2      -152733.79    
      4800   10.366423      9736.062       6724.9433      48.731617      2.3577398     -152758.87     -152734.34    
      4900   10.035286      45811.102      6724.9433      48.731617      2.3577398     -152759.22     -152735.47    
      5000   9.7262432     -3620.812       6724.9433      48.731617      2.3577398     -152758.18     -152735.16    
      5100   10.100716      19663.504      6724.9433      48.731617      2.3577398     -152757.77     -152733.87    
      5200   10.484875      18976.988      6724.9433      48.731617      2.3577398     -152758.41     -152733.6     
      5300   10.302037      23910.501      6724.9433      48.731617      2.3577398     -152759.88     -152735.49    
      5400   9.4421677      35929.833      6724.9433      48.731617      2.3577398     -152760.86     -152738.52    
      5500   9.170349       13668.671      6724.9433      48.731617      2.3577398     -152761.85     -152740.15    
      5600   9.3134894      24850.863      6724.9433      48.731617      2.3577398     -152760.98     -152738.94    
      5700   10.241453      12815.734      6724.9433      48.731617      2.3577398     -152760.11     -152735.87    
      5800   10.710437      29225.217      6724.9433      48.731617      2.3577398     -152757.91     -152732.57    
      5900   10.877499      20898.915      6724.9433      48.731617      2.3577398     -152757.28     -152731.53    
      6000   10.136986      15566.932      6724.9433      48.731617      2.3577398     -152757.13     -152733.14    
      6100   10.183488      22348.742      6724.9433      48.731617      2.3577398     -152759.3      -152735.2     
      6200   10.104635      19091.895      6724.9433      48.731617      2.3577398     -152760.58     -152736.66    
      6300   10.176654      32799.604      6724.9433      48.731617      2.3577398     -152761.38     -152737.3     
      6400   10.323031      24363.843      6724.9433      48.731617      2.3577398     -152761.62     -152737.19    
      6500   10.155145      11182.161      6724.9433      48.731617      2.3577398     -152761.42     -152737.39    
      6600   10.343555      19393.452      6724.9433      48.731617      2.3577398     -152762.23     -152737.75    
      6700   9.5830312      18673.892      6724.9433      48.731617      2.3577398     -152759.94     -152737.26    
      6800   9.6713175      27242.376      6724.9433      48.731617      2.3577398     -152758.45     -152735.56    
      6900   9.5606825      20076.687      6724.9433      48.731617      2.3577398     -152756.42     -152733.79    
      7000   10.245765      29800.509      6724.9433      48.731617      2.3577398     -152756.98     -152732.73    
      7100   10.301199      16388.466      6724.9433      48.731617      2.3577398     -152758.03     -152733.65    
      7200   9.7633961      19876.891      6724.9433      48.731617      2.3577398     -152758.75     -152735.64    
      7300   9.8832208      27391.918      6724.9433      48.731617      2.3577398     -152760.5      -152737.11    
      7400   9.8786904      17175.177      6724.9433      48.731617      2.3577398     -152761.1      -152737.72    
      7500   10.207123      31460.029      6724.9433      48.731617      2.3577398     -152761.99     -152737.83    
      7600   10.086492      21919.852      6724.9433      48.731617      2.3577398     -152761.19     -152737.32    
      7700   9.4059708      13179.012      6724.9433      48.731617      2.3577398     -152759.16     -152736.9     
      7800   10.095537      21433.654      6724.9433      48.731617      2.3577398     -152759.39     -152735.5     
      7900   10.459808      18321.468      6724.9433      48.731617      2.3577398     -152758.58     -152733.82    
      8000   10.683717      14146.827      6724.9433      48.731617      2.3577398     -152758.6      -152733.31    
      8100   9.9922735      31630.194      6724.9433      48.731617      2.3577398     -152757.91     -152734.26    
      8200   10.152522      27976.551      6724.9433      48.731617      2.3577398     -152760.27     -152736.24    
      8300   9.6387505      17263.46       6724.9433      48.731617      2.3577398     -152760.48     -152737.66    
      8400   9.7598883      34298.365      6724.9433      48.731617      2.3577398     -152760.33     -152737.23    
      8500   10.343131      6982.8998      6724.9433      48.731617      2.3577398     -152760.31     -152735.84    
      8600   9.9356867      30218.097      6724.9433      48.731617      2.3577398     -152758.53     -152735.02    
      8700   9.9598894      20156.508      6724.9433      48.731617      2.3577398     -152759.05     -152735.48    
      8800   9.7091525      18655.826      6724.9433      48.731617      2.3577398     -152759.76     -152736.78    
      8900   9.800228       25243.162      6724.9433      48.731617      2.3577398     -152760.42     -152737.22    
      9000   9.47657        19349.091      6724.9433      48.731617      2.3577398     -152759.26     -152736.83    
      9100   9.772647       31816.102      6724.9433      48.731617      2.3577398     -152758.9      -152735.77    
      9200   10.264278      9678.0901      6724.9433      48.731617      2.3577398     -152758.94     -152734.65    
      9300   10.269077      36541.791      6724.9433      48.731617      2.3577398     -152758.8      -152734.5     
      9400   10.561447      10289.272      6724.9433      48.731617      2.3577398     -152760.47     -152735.47    
      9500   10.071825      25930.54       6724.9433      48.731617      2.3577398     -152760.04     -152736.2     
      9600   10.250286      14412.04       6724.9433      48.731617      2.3577398     -152760.62     -152736.36    
      9700   9.8947521      12037.577      6724.9433      48.731617      2.3577398     -152758.84     -152735.42    
      9800   10.136253      26047.506      6724.9433      48.731617      2.3577398     -152759.04     -152735.05    
      9900   10.02864       11560.276      6724.9433      48.731617      2.3577398     -152759.65     -152735.92    
     10000   9.6072635      30879.668      6724.9433      48.731617      2.3577398     -152760.84     -152738.1     
     10100   9.5868261      13825.117      6724.9433      48.731617      2.3577398     -152761.81     -152739.12    
     10200   9.8526446      28058.251      6724.9433      48.731617      2.3577398     -152761.04     -152737.73    
     10300   10.129572      18330.646      6724.9433      48.731617      2.3577398     -152758.44     -152734.46    
     10400   9.9676448      20425.648      6724.9433      48.731617      2.3577398     -152755.35     -152731.76    
     10500   9.8828777      34159.769      6724.9433      48.731617      2.3577398     -152755.83     -152732.44    
     10600   10.150072      11925.408      6724.9433      48.731617      2.3577398     -152758.85     -152734.83    
     10700   9.5680371      35479.237      6724.9433      48.731617      2.3577398     -152759.71     -152737.07    
     10800   10.105767      12085.613      6724.9433      48.731617      2.3577398     -152761.56     -152737.64    
     10900   10.353893      22783.018      6724.9433      48.731617      2.3577398     -152761.26     -152736.76    
     11000   10.442304      25432.407      6724.9433      48.731617      2.3577398     -152761.02     -152736.3     
     11100   9.8328885      19341.965      6724.9433      48.731617      2.3577398     -152760.03     -152736.76    
     11200   10.107425      24302.384      6724.9433      48.731617      2.3577398     -152761.48     -152737.56    
     11300   9.5920151      7226.9992      6724.9433      48.731617      2.3577398     -152760        -152737.3     
     11400   9.3252382      28624.737      6724.9433      48.731617      2.3577398     -152757.42     -152735.35    
     11500   10.272272      17348.907      6724.9433      48.731617      2.3577398     -152757.27     -152732.96    
     11600   10.217758      31571.855      6724.9433      48.731617      2.3577398     -152756.17     -152731.99    
     11700   10.464513      24945.111      6724.9433      48.731617      2.3577398     -152757.98     -152733.21    
     11800   9.8814901      25252.699      6724.9433      48.731617      2.3577398     -152759.76     -152736.37    
     11900   9.5060906      11280.372      6724.9433      48.731617      2.3577398     -152761.43     -152738.93    
     12000   9.2307707      16997.301      6724.9433      48.731617      2.3577398     -152761.38     -152739.53    
     12100   9.4616399      11641.814      6724.9433      48.731617      2.3577398     -152760.62     -152738.23    
     12200   10.167127      20266.198      6724.9433      48.731617      2.3577398     -152759.55     -152735.48    
     12300   10.600897      26282.483      6724.9433      48.731617      2.3577398     -152759.01     -152733.92    
     12400   10.198606      18089.376      6724.9433      48.731617      2.3577398     -152758.22     -152734.08    
     12500   9.7080631      18539.131      6724.9433      48.731617      2.3577398     -152758.08     -152735.11    
     12600   9.7126906      24795.87       6724.9433      48.731617      2.3577398     -152758.45     -152735.46    
     12700   10.286003      12651.481      6724.9433      48.731617      2.3577398     -152759.37     -152735.02    
     12800   10.617059      28780.145      6724.9433      48.731617      2.3577398     -152759.77     -152734.64    
     12900   10.110682      14453.128      6724.9433      48.731617      2.3577398     -152759.4      -152735.47    
     13000   9.6098299      23799.087      6724.9433      48.731617      2.3577398     -152759.54     -152736.8     
     13100   9.0946102      18992.477      6724.9433      48.731617      2.3577398     -152759.34     -152737.82    
     13200   9.5090451      18052.771      6724.9433      48.731617      2.3577398     -152759.54     -152737.03    
     13300   10.006194      31426.116      6724.9433      48.731617      2.3577398     -152759.28     -152735.6     
     13400   10.024296      20609.578      6724.9433      48.731617      2.3577398     -152758.58     -152734.85    
     13500   10.170156      38546.958      6724.9433      48.731617      2.3577398     -152759.12     -152735.05    
     13600   9.730681       4720.148       6724.9433      48.731617      2.3577398     -152758.75     -152735.72    
     13700   9.4909591      33469.476      6724.9433      48.731617      2.3577398     -152758.14     -152735.68    
     13800   9.9888794      8911.3094      6724.9433      48.731617      2.3577398     -152758.52     -152734.88    
     13900   10.581388      20677.729      6724.9433      48.731617      2.3577398     -152759.82     -152734.78    
     14000   10.448394      29783.014      6724.9433      48.731617      2.3577398     -152760.06     -152735.33    
     14100   10.41541       10316.47       6724.9433      48.731617      2.3577398     -152760.89     -152736.24    
     14200   9.7092162      29149.622      6724.9433      48.731617      2.3577398     -152759.77     -152736.79    
     14300   10.367417      12039.576      6724.9433      48.731617      2.3577398     -152761.54     -152737.01    
     14400   9.5047168      34891.936      6724.9433      48.731617      2.3577398     -152759.53     -152737.04    
     14500   10.315686      15165.141      6724.9433      48.731617      2.3577398     -152761.46     -152737.05    
     14600   10.034525      28940.52       6724.9433      48.731617      2.3577398     -152760.08     -152736.33    
     14700   9.667815       12236.313      6724.9433      48.731617      2.3577398     -152757.95     -152735.07    
     14800   9.9668835      24453.479      6724.9433      48.731617      2.3577398     -152757.88     -152734.29    
     14900   10.161345      28245.479      6724.9433      48.731617      2.3577398     -152757.99     -152733.94    
     15000   9.5988513      19437.479      6724.9433      48.731617      2.3577398     -152757.21     -152734.49    
     15100   10.233668      31934.039      6724.9433      48.731617      2.3577398     -152759.56     -152735.34    
     15200   9.9633151      5667.3068      6724.9433      48.731617      2.3577398     -152759.31     -152735.73    
     15300   10.010124      34883.005      6724.9433      48.731617      2.3577398     -152759.98     -152736.29    
     15400   9.9808268      13761.223      6724.9433      48.731617      2.3577398     -152760.83     -152737.21    
     15500   9.9940639      34190.521      6724.9433      48.731617      2.3577398     -152761.61     -152737.95    
     15600   9.7498472      14572.634      6724.9433      48.731617      2.3577398     -152760.94     -152737.87    
     15700   10.094664      17726.264      6724.9433      48.731617      2.3577398     -152760.47     -152736.58    
     15800   9.5658405      29033.676      6724.9433      48.731617      2.3577398     -152757.54     -152734.9     
     15900   10.405424      17167.388      6724.9433      48.731617      2.3577398     -152758.2      -152733.57    
     16000   10.102008      40207.473      6724.9433      48.731617      2.3577398     -152757.12     -152733.22    
     16100   10.308581      11351.3        6724.9433      48.731617      2.3577398     -152758.34     -152733.94    
     16200   10.10518       25079.874      6724.9433      48.731617      2.3577398     -152759.39     -152735.48    
     16300   9.8843145      15017.329      6724.9433      48.731617      2.3577398     -152761.05     -152737.66    
     16400   9.2298693      25155.587      6724.9433      48.731617      2.3577398     -152760.72     -152738.88    
     16500   9.5224708      17699.25       6724.9433      48.731617      2.3577398     -152761.06     -152738.52    
     16600   10.182261      15853.121      6724.9433      48.731617      2.3577398     -152760.71     -152736.61    
     16700   10.69209       27129.587      6724.9433      48.731617      2.3577398     -152760.55     -152735.24    
     16800   10.47792       11059.711      6724.9433      48.731617      2.3577398     -152760.15     -152735.36    
     16900   10.00822       27798.507      6724.9433      48.731617      2.3577398     -152759.75     -152736.06    
     17000   9.6504692      24220.544      6724.9433      48.731617      2.3577398     -152758.49     -152735.64    
     17100   9.9244178      11538.466      6724.9433      48.731617      2.3577398     -152758.05     -152734.56    
     17200   10.664242      24372.859      6724.9433      48.731617      2.3577398     -152758.88     -152733.64    
     17300   10.631384      21039.654      6724.9433      48.731617      2.3577398     -152760        -152734.84    
     17400   10.337882      17138.672      6724.9433      48.731617      2.3577398     -152761.81     -152737.34    
     17500   9.4484674      19352.063      6724.9433      48.731617      2.3577398     -152761.75     -152739.38    
     17600   9.6901573      25485.464      6724.9433      48.731617      2.3577398     -152762.01     -152739.07    
     17700   10.039774      14572.912      6724.9433      48.731617      2.3577398     -152760.03     -152736.26    
     17800   10.300292      26976.094      6724.9433      48.731617      2.3577398     -152758.41     -152734.03    
     17900   10.676989      26228.426      6724.9433      48.731617      2.3577398     -152759.58     -152734.31    
     18000   9.7655099      9641.424       6724.9433      48.731617      2.3577398     -152759.28     -152736.17    
     18100   9.9724239      33350.331      6724.9433      48.731617      2.3577398     -152760.9      -152737.3     
     18200   9.806449       15628.119      6724.9433      48.731617      2.3577398     -152759.84     -152736.63    
     18300   10.134354      21078.727      6724.9433      48.731617      2.3577398     -152759.3      -152735.31    
     18400   10.157364      24555.902      6724.9433      48.731617      2.3577398     -152758.54     -152734.5     
     18500   10.312388      14734.629      6724.9433      48.731617      2.3577398     -152759.28     -152734.87    
     18600   10.066262      20637.577      6724.9433      48.731617      2.3577398     -152759.94     -152736.12    
     18700   9.7217326      21632.184      6724.9433      48.731617      2.3577398     -152760.75     -152737.74    
     18800   9.22237        21742.178      6724.9433      48.731617      2.3577398     -152759.99     -152738.17    
     18900   9.7688009      18216.418      6724.9433      48.731617      2.3577398     -152760.85     -152737.73    
     19000   10.227105      30069.593      6724.9433      48.731617      2.3577398     -152760.39     -152736.18    
     19100   10.186316      17998.325      6724.9433      48.731617      2.3577398     -152759.62     -152735.51    
     19200   9.9343611      11027.417      6724.9433      48.731617      2.3577398     -152759.41     -152735.9     
     19300   9.7382223      22785.287      6724.9433      48.731617      2.3577398     -152759.4      -152736.35    
     19400   9.6157928      12657.553      6724.9433      48.731617      2.3577398     -152758.59     -152735.84    
     19500   10.322239      19333.002      6724.9433      48.731617      2.3577398     -152758.87     -152734.44    
     19600   10.302459      27405.783      6724.9433      48.731617      2.3577398     -152757.91     -152733.52    
     19700   10.988488      29959.915      6724.9433      48.731617      2.3577398     -152760.88     -152734.88    
     19800   10.054619      22789.367      6724.9433      48.731617      2.3577398     -152761.48     -152737.68    
     19900   9.1908754      28944.793      6724.9433      48.731617      2.3577398     -152761.15     -152739.4     
     20000   9.6711466      22969.337      6724.9433      48.731617      2.3577398     -152761.65     -152738.76    
     20100   9.7727297      16176.949      6724.9433      48.731617      2.3577398     -152759.64     -152736.51    
     20200   10.0437        35400.956      6724.9433      48.731617      2.3577398     -152758.79     -152735.01    
     20300   9.6906147      10338.531      6724.9433      48.731617      2.3577398     -152757.95     -152735.01    
     20400   9.6934471      23218.094      6724.9433      48.731617      2.3577398     -152758.31     -152735.36    
     20500   10.106772      23971.242      6724.9433      48.731617      2.3577398     -152758.55     -152734.63    
     20600   10.259273      14031.893      6724.9433      48.731617      2.3577398     -152758.61     -152734.33    
     20700   10.544111      23894.044      6724.9433      48.731617      2.3577398     -152759.39     -152734.43    
     20800   9.5916018      26420.368      6724.9433      48.731617      2.3577398     -152758.38     -152735.68    
     20900   10.10877       21408.422      6724.9433      48.731617      2.3577398     -152761.24     -152737.31    
     21000   9.7349058      17499.523      6724.9433      48.731617      2.3577398     -152761.57     -152738.53    
     21100   9.3203496      21452.348      6724.9433      48.731617      2.3577398     -152760.86     -152738.8     
     21200   9.4728433      18056.062      6724.9433      48.731617      2.3577398     -152760.68     -152738.26    
     21300   9.8463548      25327.133      6724.9433      48.731617      2.3577398     -152759.67     -152736.37    
     21400   9.4887215      11541.154      6724.9433      48.731617      2.3577398     -152756.84     -152734.38    
     21500   10.451385      22658.457      6724.9433      48.731617      2.3577398     -152757.25     -152732.51    
     21600   10.72406       11465.026      6724.9433      48.731617      2.3577398     -152757.85     -152732.47    
     21700   9.8922237      25512.683      6724.9433      48.731617      2.3577398     -152757.55     -152734.14    
     21800   9.7699447      13548.807      6724.9433      48.731617      2.3577398     -152760.22     -152737.09    
     21900   9.6332333      16649.733      6724.9433      48.731617      2.3577398     -152761.95     -152739.15    
     22000   10.204788      22568.855      6724.9433      48.731617      2.3577398     -152763.44     -152739.28    
     22100   10.143233      15615.665      6724.9433      48.731617      2.3577398     -152761.95     -152737.94    
     22200   10.213063      23967.91       6724.9433      48.731617      2.3577398     -152760.32     -152736.14    
     22300   10.020483      20528.273      6724.9433      48.731617      2.3577398     -152758.03     -152734.31    
     22400   9.9638965      21370.047      6724.9433      48.731617      2.3577398     -152757.61     -152734.03    
     22500   10.012105      12919.307      6724.9433      48.731617      2.3577398     -152758.61     -152734.91    
     22600   9.52615        24283.326      6724.9433      48.731617      2.3577398     -152758.8      -152736.25    
     22700   10.325932      23165.207      6724.9433      48.731617      2.3577398     -152760.98     -152736.54    
     22800   10.426188      25034.209      6724.9433      48.731617      2.3577398     -152760.5      -152735.82    
     22900   10.539321      23852.323      6724.9433      48.731617      2.3577398     -152760.27     -152735.32    
     23000   10.111102      8681.7147      6724.9433      48.731617      2.3577398     -152759.88     -152735.95    
     23100   9.8309993      34899.242      6724.9433      48.731617      2.3577398     -152761        -152737.73    
     23200   9.3228314      13292.615      6724.9433      48.731617      2.3577398     -152761.19     -152739.13    
     23300   9.5849572      28459.911      6724.9433      48.731617      2.3577398     -152761.13     -152738.44    
     23400   10.322578      19106.397      6724.9433      48.731617      2.3577398     -152760.78     -152736.35    
     23500   10.403076      20063.775      6724.9433      48.731617      2.3577398     -152758.99     -152734.37    
     23600   10.329052      22753.676      6724.9433      48.731617      2.3577398     -152759.25     -152734.8     
     23700   9.7148246      17001.419      6724.9433      48.731617      2.3577398     -152759.54     -152736.54    
     23800   9.3924559      34627.917      6724.9433      48.731617      2.3577398     -152759.88     -152737.65    
     23900   9.3395799      9723.198       6724.9433      48.731617      2.3577398     -152758.98     -152736.87    
     24000   10.55315       24323.435      6724.9433      48.731617      2.3577398     -152760.34     -152735.36    
     24100   10.796072      7892.732       6724.9433      48.731617      2.3577398     -152760.54     -152734.99    
     24200   10.446264      28389.092      6724.9433      48.731617      2.3577398     -152761.46     -152736.73    
     24300   10.211546      26779.297      6724.9433      48.731617      2.3577398     -152762.9      -152738.73    
     24400   9.7391281      16583.307      6724.9433      48.731617      2.3577398     -152762.81     -152739.76    
     24500   9.8731507      20825.305      6724.9433      48.731617      2.3577398     -152761.76     -152738.39    
     24600   10.533927      21199.165      6724.9433      48.731617      2.3577398     -152761.34     -152736.41    
     24700   10.355493      25628.865      6724.9433      48.731617      2.3577398     -152759.4      -152734.89    
     24800   9.8418429      15362.626      6724.9433      48.731617      2.3577398     -152758.25     -152734.95    
     24900   9.8180554      30402.654      6724.9433      48.731617      2.3577398     -152759.39     -152736.15    
     25000   9.6664366      8259.6789      6724.9433      48.731617      2.3577398     -152759.95     -152737.07    
     25100   9.3517551      25103.034      6724.9433      48.731617      2.3577398     -152759.11     -152736.97    
     25200   10.338182      17438.946      6724.9433      48.731617      2.3577398     -152760.87     -152736.4     
     25300   10.404362      10565          6724.9433      48.731617      2.3577398     -152760.74     -152736.12    
     25400   9.9084152      39959.26       6724.9433      48.731617      2.3577398     -152760.88     -152737.43    
     25500   9.769043       9042.0828      6724.9433      48.731617      2.3577398     -152762.63     -152739.51    
     25600   9.6289649      32337.293      6724.9433      48.731617      2.3577398     -152763.44     -152740.65    
     25700   9.9615771      12699.348      6724.9433      48.731617      2.3577398     -152763.13     -152739.55    
     25800   9.957927       26145.424      6724.9433      48.731617      2.3577398     -152759.93     -152736.36    
     25900   10.511766      24297.126      6724.9433      48.731617      2.3577398     -152758.34     -152733.47    
     26000   10.297182      20210.337      6724.9433      48.731617      2.3577398     -152757.15     -152732.78    
     26100   9.8360895      19423.935      6724.9433      48.731617      2.3577398     -152758.12     -152734.84    
     26200   10.236277      9459.8911      6724.9433      48.731617      2.3577398     -152761.81     -152737.58    
     26300   9.669401       35510.441      6724.9433      48.731617      2.3577398     -152762.32     -152739.44    
     26400   9.2014306      13368.378      6724.9433      48.731617      2.3577398     -152761.75     -152739.98    
     26500   9.5344602      38842.479      6724.9433      48.731617      2.3577398     -152761.87     -152739.31    
     26600   10.604979      14474.296      6724.9433      48.731617      2.3577398     -152763.16     -152738.06    
     26700   10.82327       30371.164      6724.9433      48.731617      2.3577398     -152762.88     -152737.27    
     26800   10.078503      21572.565      6724.9433      48.731617      2.3577398     -152760.73     -152736.87    
     26900   9.7546013      14846.631      6724.9433      48.731617      2.3577398     -152759.64     -152736.56    
     27000   9.9644082      25886.474      6724.9433      48.731617      2.3577398     -152759.24     -152735.65    
     27100   10.36327       7638.1112      6724.9433      48.731617      2.3577398     -152759.75     -152735.22    
     27200   10.552615      31650.709      6724.9433      48.731617      2.3577398     -152760.63     -152735.66    
     27300   10.218812      12734.737      6724.9433      48.731617      2.3577398     -152760.91     -152736.72    
     27400   9.8801697      34728.966      6724.9433      48.731617      2.3577398     -152761.43     -152738.05    
     27500   9.6306285      17893.988      6724.9433      48.731617      2.3577398     -152761.9      -152739.11    
     27600   9.7007667      23173.8        6724.9433      48.731617      2.3577398     -152762.32     -152739.36    
     27700   9.3605702      16743.178      6724.9433      48.731617      2.3577398     -152760.66     -152738.5     
     27800   9.6374507      24557.864      6724.9433      48.731617      2.3577398     -152759.56     -152736.75    
     27900   10.284576      25020.609      6724.9433      48.731617      2.3577398     -152759.5      -152735.16    
     28000   10.667858      13064.413      6724.9433      48.731617      2.3577398     -152760.66     -152735.42    
     28100   10.212419      29796.066      6724.9433      48.731617      2.3577398     -152760.75     -152736.58    
     28200   10.027645      16186.383      6724.9433      48.731617      2.3577398     -152761.45     -152737.72    
     28300   9.9956446      24503.31       6724.9433      48.731617      2.3577398     -152761.49     -152737.83    
     28400   10.400679      16961.38       6724.9433      48.731617      2.3577398     -152761.68     -152737.06    
     28500   9.8017361      24061.783      6724.9433      48.731617      2.3577398     -152759.78     -152736.58    
     28600   10.055104      22959.951      6724.9433      48.731617      2.3577398     -152760.72     -152736.92    
     28700   9.3672874      22764.586      6724.9433      48.731617      2.3577398     -152759.95     -152737.78    
     28800   9.7633784      20587.108      6724.9433      48.731617      2.3577398     -152760.85     -152737.74    
     28900   10.028524      10632.886      6724.9433      48.731617      2.3577398     -152760.9      -152737.17    
     29000   10.379786      25610.098      6724.9433      48.731617      2.3577398     -152761.33     -152736.76    
     29100   10.185272      22382.032      6724.9433      48.731617      2.3577398     -152761.31     -152737.21    
     29200   9.8107293      15251.552      6724.9433      48.731617      2.3577398     -152761.19     -152737.97    
     29300   9.5011851      35050.03       6724.9433      48.731617      2.3577398     -152760.37     -152737.88    
     29400   9.9062874      13732.428      6724.9433      48.731617      2.3577398     -152760.84     -152737.39    
     29500   9.9812361      33882.679      6724.9433      48.731617      2.3577398     -152760.17     -152736.55    
     29600   10.1059        8523.9093      6724.9433      48.731617      2.3577398     -152759.51     -152735.59    
     29700   10.363817      28318.678      6724.9433      48.731617      2.3577398     -152759.61     -152735.08    
     29800   10.385972      21177.743      6724.9433      48.731617      2.3577398     -152760.14     -152735.56    
     29900   10.317633      23634.647      6724.9433      48.731617      2.3577398     -152762.18     -152737.76    
     30000   9.6964946      26351.003      6724.9433      48.731617      2.3577398     -152762.88     -152739.93    
     30100   9.6922967      17932.614      6724.9433      48.731617      2.3577398     -152763.19     -152740.25    
     30200   9.812987       30934.35       6724.9433      48.731617      2.3577398     -152762.18     -152738.96    
     30300   9.530617       7879.121       6724.9433      48.731617      2.3577398     -152759.36     -152736.81    
     30400   9.857291       35944.981      6724.9433      48.731617      2.3577398     -152759.09     -152735.76    
     30500   10.361122      14052.082      6724.9433      48.731617      2.3577398     -152760.44     -152735.91    
     30600   9.4302828      27219.152      6724.9433      48.731617      2.3577398     -152758.83     -152736.51    
     30700   9.9538043      17755.974      6724.9433      48.731617      2.3577398     -152759.99     -152736.43    
     30800   10.388195      13004.982      6724.9433      48.731617      2.3577398     -152760.97     -152736.39    
     30900   10.251653      33466.483      6724.9433      48.731617      2.3577398     -152761.66     -152737.4     
     31000   9.6288669      15099.685      6724.9433      48.731617      2.3577398     -152762.04     -152739.25    
     31100   9.3690506      35264.154      6724.9433      48.731617      2.3577398     -152762.48     -152740.31    
     31200   9.7184422      8686.3734      6724.9433      48.731617      2.3577398     -152762.82     -152739.82    
     31300   9.6583789      29243.772      6724.9433      48.731617      2.3577398     -152761.13     -152738.27    
     31400   9.9071028      18896.298      6724.9433      48.731617      2.3577398     -152760.13     -152736.68    
     31500   10.149218      18531.409      6724.9433      48.731617      2.3577398     -152760.24     -152736.22    
     31600   10.318613      30798.188      6724.9433      48.731617      2.3577398     -152760.48     -152736.05    
     31700   10.014367      3897.3485      6724.9433      48.731617      2.3577398     -152760.14     -152736.44    
     31800   10.111414      25926.253      6724.9433      48.731617      2.3577398     -152761.43     -152737.5     
     31900   10.024081      12112.833      6724.9433      48.731617      2.3577398     -152762.15     -152738.42    
     32000   10.20032       28737.673      6724.9433      48.731617      2.3577398     -152762.92     -152738.78    
     32100   10.482507      28400.476      6724.9433      48.731617      2.3577398     -152763.68     -152738.87    
     32200   9.8063111      16347.347      6724.9433      48.731617      2.3577398     -152762.17     -152738.97    
     32300   10.163081      31609.705      6724.9433      48.731617      2.3577398     -152763.53     -152739.48    
     32400   9.707578       17069.782      6724.9433      48.731617      2.3577398     -152762.3      -152739.32    
     32500   9.818121       33931.814      6724.9433      48.731617      2.3577398     -152761.41     -152738.17    
     32600   10.260902      5850.8374      6724.9433      48.731617      2.3577398     -152760.6      -152736.31    
     32700   10.315984      23698.755      6724.9433      48.731617      2.3577398     -152759.9      -152735.48    
     32800   9.9278029      14308.812      6724.9433      48.731617      2.3577398     -152760.25     -152736.76    
     32900   9.8444682      20681.341      6724.9433      48.731617      2.3577398     -152762.17     -152738.88    
     33000   9.5577679      24149.437      6724.9433      48.731617      2.3577398     -152763.04     -152740.42    
     33100   9.8243979      11229.177      6724.9433      48.731617      2.3577398     -152763.82     -152740.57    
     33200   9.3990565      32284.514      6724.9433      48.731617      2.3577398     -152761.59     -152739.35    
     33300   9.9958153      13851.157      6724.9433      48.731617      2.3577398     -152761.48     -152737.82    
     33400   10.146622      34627.503      6724.9433      48.731617      2.3577398     -152761.29     -152737.27    
     33500   10.247273      9987.9402      6724.9433      48.731617      2.3577398     -152762.1      -152737.84    
     33600   9.9631542      25909.4        6724.9433      48.731617      2.3577398     -152762.64     -152739.06    
     33700   9.768105       19594.294      6724.9433      48.731617      2.3577398     -152763.02     -152739.91    
     33800   9.4868083      24429.926      6724.9433      48.731617      2.3577398     -152762.29     -152739.83    
     33900   10.047115      25460.997      6724.9433      48.731617      2.3577398     -152762.65     -152738.87    
     34000   9.8714767      10108.644      6724.9433      48.731617      2.3577398     -152761.07     -152737.71    
     34100   10.268504      39121.494      6724.9433      48.731617      2.3577398     -152761.37     -152737.07    
     34200   10.170738      8317.3337      6724.9433      48.731617      2.3577398     -152761.92     -152737.85    
     34300   10.197114      37267.769      6724.9433      48.731617      2.3577398     -152764.09     -152739.96    
     34400   9.873448       10437.662      6724.9433      48.731617      2.3577398     -152764.78     -152741.41    
     34500   9.497221       13622.482      6724.9433      48.731617      2.3577398     -152764.06     -152741.58    
     34600   9.5085786      22502.062      6724.9433      48.731617      2.3577398     -152762.8      -152740.29    
     34700   10.274589      12356.867      6724.9433      48.731617      2.3577398     -152763.01     -152738.69    
     34800   10.720279      37005.992      6724.9433      48.731617      2.3577398     -152763.59     -152738.22    
     34900   9.9510101      13067.246      6724.9433      48.731617      2.3577398     -152762.48     -152738.93    
     35000   9.7050846      32711.845      6724.9433      48.731617      2.3577398     -152763.09     -152740.12    
     35100   10.224615      16025.798      6724.9433      48.731617      2.3577398     -152764.35     -152740.15    
     35200   10.36711       27104.199      6724.9433      48.731617      2.3577398     -152763.91     -152739.38    
     35300   10.467676      30573.205      6724.9433      48.731617      2.3577398     -152763.62     -152738.85    
     35400   10.489653      12274.732      6724.9433      48.731617      2.3577398     -152764.45     -152739.63    
     35500   9.9320023      34233.968      6724.9433      48.731617      2.3577398     -152765.01     -152741.5     
     35600   9.707665       8643.344       6724.9433      48.731617      2.3577398     -152766.04     -152743.06    
     35700   9.7170131      31673.078      6724.9433      48.731617      2.3577398     -152766.07     -152743.07    
     35800   9.815899       9836.0258      6724.9433      48.731617      2.3577398     -152764.45     -152741.21    
     35900   10.162015      23470.423      6724.9433      48.731617      2.3577398     -152763.07     -152739.02    
     36000   10.137608      25513.018      6724.9433      48.731617      2.3577398     -152761.96     -152737.97    
     36100   9.9064197      15571.728      6724.9433      48.731617      2.3577398     -152762.51     -152739.06    
     36200   9.5990481      34250.732      6724.9433      48.731617      2.3577398     -152763.87     -152741.15    
     36300   9.3743475      5627.6857      6724.9433      48.731617      2.3577398     -152764.92     -152742.73    
     36400   9.6828759      35776.602      6724.9433      48.731617      2.3577398     -152765.64     -152742.72    
     36500   10.507823      13755.202      6724.9433      48.731617      2.3577398     -152766.79     -152741.92    
     36600   10.192196      25836.349      6724.9433      48.731617      2.3577398     -152765.78     -152741.66    
     36700   9.9904248      19626.977      6724.9433      48.731617      2.3577398     -152766.45     -152742.81    
     36800   9.4258877      20682.16       6724.9433      48.731617      2.3577398     -152766.5      -152744.19    
     36900   9.3803758      30551.808      6724.9433      48.731617      2.3577398     -152766.04     -152743.84    
     37000   10.130615      21755.648      6724.9433      48.731617      2.3577398     -152765.52     -152741.54    
     37100   10.588889      37911.944      6724.9433      48.731617      2.3577398     -152764.1      -152739.04    
     37200   10.797734      3880.356       6724.9433      48.731617      2.3577398     -152765.07     -152739.51    
     37300   10.24625       31708.945      6724.9433      48.731617      2.3577398     -152767.07     -152742.82    
     37400   9.6339385      11495.073      6724.9433      48.731617      2.3577398     -152768.56     -152745.75    
     37500   9.4377503      26304.425      6724.9433      48.731617      2.3577398     -152768.55     -152746.21    
     37600   9.5270926      24880.949      6724.9433      48.731617      2.3577398     -152767.07     -152744.52    
     37700   10.457116      22404.451      6724.9433      48.731617      2.3577398     -152767.77     -152743.02    
     37800   10.128064      32486.192      6724.9433      48.731617      2.3577398     -152767.1      -152743.13    
     37900   9.5313356      19608.612      6724.9433      48.731617      2.3577398     -152767.51     -152744.95    
     38000   9.6904697      24691.518      6724.9433      48.731617      2.3577398     -152768.7      -152745.77    
     38100   9.5664968      18469.034      6724.9433      48.731617      2.3577398     -152767.69     -152745.05    
     38200   10.661459      26832.311      6724.9433      48.731617      2.3577398     -152768.91     -152743.68    
     38300   10.348634      21960.464      6724.9433      48.731617      2.3577398     -152767.8      -152743.3     
     38400   9.960301       19948.025      6724.9433      48.731617      2.3577398     -152768.5      -152744.92    
     38500   9.744555       21463.629      6724.9433      48.731617      2.3577398     -152769.96     -152746.9     
     38600   9.6096541      19818.842      6724.9433      48.731617      2.3577398     -152770.17     -152747.42    
     38700   10.069338      31467.271      6724.9433      48.731617      2.3577398     -152770.46     -152746.62    
     38800   9.8902656      13426.11       6724.9433      48.731617      2.3577398     -152768.72     -152745.31    
     38900   10.399188      23274.493      6724.9433      48.731617      2.3577398     -152769.94     -152745.33    
     39000   10.084421      20722.92       6724.9433      48.731617      2.3577398     -152770.59     -152746.72    
     39100   9.664853       28081.016      6724.9433      48.731617      2.3577398     -152770.62     -152747.74    
     39200   9.997978       21204.869      6724.9433      48.731617      2.3577398     -152771.52     -152747.85    
     39300   9.9544089      21700.525      6724.9433      48.731617      2.3577398     -152770.46     -152746.9     
     39400   10.249124      18547.82       6724.9433      48.731617      2.3577398     -152769.76     -152745.5     
     39500   10.454346      16526.366      6724.9433      48.731617      2.3577398     -152770.26     -152745.51    
     39600   10.264832      27112.194      6724.9433      48.731617      2.3577398     -152771.28     -152746.99    
     39700   9.4501641      21207.773      6724.9433      48.731617      2.3577398     -152771.15     -152748.79    
     39800   9.3823577      22659.919      6724.9433      48.731617      2.3577398     -152771.6      -152749.39    
     39900   9.7701706      23761.893      6724.9433      48.731617      2.3577398     -152771.33     -152748.2     
     40000   10.460336      13387.843      6724.9433      48.731617      2.3577398     -152771.72     -152746.97    
     40100   10.411795      27786.499      6724.9433      48.731617      2.3577398     -152771.94     -152747.3     
     40200   10.077078      27647.603      6724.9433      48.731617      2.3577398     -152772.84     -152748.99    
     40300   9.385412       20574.261      6724.9433      48.731617      2.3577398     -152771.94     -152749.73    
     40400   9.5521454      27975.76       6724.9433      48.731617      2.3577398     -152771.45     -152748.85    
     40500   10.106498      12468.538      6724.9433      48.731617      2.3577398     -152771.01     -152747.09    
     40600   10.644255      26014.059      6724.9433      48.731617      2.3577398     -152771.75     -152746.55    
     40700   10.372136      23555.096      6724.9433      48.731617      2.3577398     -152772.36     -152747.81    
     40800   9.6343874      26966.584      6724.9433      48.731617      2.3577398     -152772.35     -152749.55    
     40900   9.7459061      18594.899      6724.9433      48.731617      2.3577398     -152773.29     -152750.22    
     41000   9.9276107      30136.146      6724.9433      48.731617      2.3577398     -152773.33     -152749.84    
     41100   9.8505551      20410.334      6724.9433      48.731617      2.3577398     -152772.84     -152749.53    
     41200   9.9979218      22128.4        6724.9433      48.731617      2.3577398     -152773.22     -152749.56    
     41300   9.9646164      32188.619      6724.9433      48.731617      2.3577398     -152773.32     -152749.73    
     41400   9.9196349      14105.039      6724.9433      48.731617      2.3577398     -152772.63     -152749.15    
     41500   10.301247      31871.929      6724.9433      48.731617      2.3577398     -152772.88     -152748.5     
     41600   10.153147      18346.973      6724.9433      48.731617      2.3577398     -152772.52     -152748.49    
     41700   10.148415      26339.385      6724.9433      48.731617      2.3577398     -152773.43     -152749.41    
     41800   9.8105393      26986.514      6724.9433      48.731617      2.3577398     -152773.52     -152750.3     
     41900   9.8346391      22724.8        6724.9433      48.731617      2.3577398     -152773.91     -152750.63    
     42000   10.162987      29646.702      6724.9433      48.731617      2.3577398     -152774.46     -152750.41    
     42100   9.9905005      19869.64       6724.9433      48.731617      2.3577398     -152774.06     -152750.42    
     42200   10.173539      29448.314      6724.9433      48.731617      2.3577398     -152774.67     -152750.59    
     42300   9.6871901      16170.712      6724.9433      48.731617      2.3577398     -152773.71     -152750.79    
     42400   9.7360001      25677.363      6724.9433      48.731617      2.3577398     -152773.51     -152750.46    
     42500   9.9645429      28628.126      6724.9433      48.731617      2.3577398     -152773.08     -152749.5     
     42600   9.8854039      30005.063      6724.9433      48.731617      2.3577398     -152772.3      -152748.9     
     42700   10.425644      35431.589      6724.9433      48.731617      2.3577398     -152773.87     -152749.2     
     42800   10.083915      23276.488      6724.9433      48.731617      2.3577398     -152774.24     -152750.37    
     42900   9.6608545      34066.806      6724.9433      48.731617      2.3577398     -152774.51     -152751.64    
     43000   9.7036578      11934.098      6724.9433      48.731617      2.3577398     -152774.83     -152751.86    
     43100   10.009424      28257.742      6724.9433      48.731617      2.3577398     -152774.6      -152750.91    
     43200   10.120786      18376.789      6724.9433      48.731617      2.3577398     -152773.47     -152749.52    
     43300   10.192442      30578.104      6724.9433      48.731617      2.3577398     -152772.85     -152748.73    
     43400   10.069133      29396.136      6724.9433      48.731617      2.3577398     -152773.24     -152749.41    
     43500   9.705128       22820.105      6724.9433      48.731617      2.3577398     -152773.45     -152750.48    
     43600   9.8581154      26907.533      6724.9433      48.731617      2.3577398     -152773.58     -152750.25    
     43700   9.8759809      29330.527      6724.9433      48.731617      2.3577398     -152772.67     -152749.3     
     43800   10.224644      32680.066      6724.9433      48.731617      2.3577398     -152772.31     -152748.11    
     43900   10.171006      23971.011      6724.9433      48.731617      2.3577398     -152771.73     -152747.65    
     44000   9.8510136      29196.579      6724.9433      48.731617      2.3577398     -152771.42     -152748.1     
     44100   9.9387866      20906.351      6724.9433      48.731617      2.3577398     -152772.2      -152748.68    
     44200   9.8135591      29702.592      6724.9433      48.731617      2.3577398     -152771.52     -152748.3     
     44300   10.004912      30429.885      6724.9433      48.731617      2.3577398     -152770.96     -152747.28    
     44400   10.072092      23068.282      6724.9433      48.731617      2.3577398     -152770.25     -152746.41    
     44500   10.12825       40278.989      6724.9433      48.731617      2.3577398     -152769.97     -152746       
     44600   10.194503      21554.639      6724.9433      48.731617      2.3577398     -152770.49     -152746.36    
     44700   9.9941462      39845.358      6724.9433      48.731617      2.3577398     -152769.81     -152746.15    
     44800   9.6266657      16196.912      6724.9433      48.731617      2.3577398     -152767.54     -152744.76    
     44900   9.908319       30316.604      6724.9433      48.731617      2.3577398     -152766.72     -152743.27    
     45000   10.1979        25901.224      6724.9433      48.731617      2.3577398     -152766.69     -152742.56    
     45100   10.29819       36082.742      6724.9433      48.731617      2.3577398     -152767.48     -152743.11    
     45200   9.4423205      29767.738      6724.9433      48.731617      2.3577398     -152766.04     -152743.69    
     45300   9.4105962      26715.639      6724.9433      48.731617      2.3577398     -152765.89     -152743.62    
     45400   9.8848547      35886.449      6724.9433      48.731617      2.3577398     -152766.22     -152742.82    
     45500   10.284483      19205.62       6724.9433      48.731617      2.3577398     -152766.12     -152741.78    
     45600   9.9407691      30706.184      6724.9433      48.731617      2.3577398     -152765.2      -152741.67    
     45700   9.6448398      18005.398      6724.9433      48.731617      2.3577398     -152764.52     -152741.69    
     45800   9.9816993      37351.675      6724.9433      48.731617      2.3577398     -152764.44     -152740.81    
     45900   10.083991      32336.272      6724.9433      48.731617      2.3577398     -152762.94     -152739.07    
     46000   10.419751      32339.915      6724.9433      48.731617      2.3577398     -152762.35     -152737.69    
     46100   10.075072      42599.549      6724.9433      48.731617      2.3577398     -152762.01     -152738.17    
     46200   9.6676969      29015.968      6724.9433      48.731617      2.3577398     -152762.85     -152739.96    
     46300   9.6307885      42213.257      6724.9433      48.731617      2.3577398     -152763.5      -152740.71    
     46400   9.9804075      19128.962      6724.9433      48.731617      2.3577398     -152764.02     -152740.4     
     46500   10.781149      34487.096      6724.9433      48.731617      2.3577398     -152765.08     -152739.56    
     46600   10.252656      25202.294      6724.9433      48.731617      2.3577398     -152763.28     -152739.01    
     46700   9.6765402      26738.092      6724.9433      48.731617      2.3577398     -152761.7      -152738.8     
     46800   9.9276107      34651.011      6724.9433      48.731617      2.3577398     -152762        -152738.5     
     46900   10.10114       24667.456      6724.9433      48.731617      2.3577398     -152761.66     -152737.75    
     47000   10.063327      37988.591      6724.9433      48.731617      2.3577398     -152760.91     -152737.09    
     47100   10.497651      25938.183      6724.9433      48.731617      2.3577398     -152761.82     -152736.97    
     47200   10.18515       36035.605      6724.9433      48.731617      2.3577398     -152762.22     -152738.11    
     47300   9.8071743      30192.776      6724.9433      48.731617      2.3577398     -152763.26     -152740.05    
     47400   9.4525055      38855.958      6724.9433      48.731617      2.3577398     -152763.46     -152741.08    
     47500   9.7798176      25494.255      6724.9433      48.731617      2.3577398     -152764.38     -152741.23    
     47600   10.040513      36606.436      6724.9433      48.731617      2.3577398     -152763.95     -152740.19    
     47700   9.7270469      30886.573      6724.9433      48.731617      2.3577398     -152762.39     -152739.37    
     47800   10.309257      25122.976      6724.9433      48.731617      2.3577398     -152763.42     -152739.02    
     47900   10.100324      36967.911      6724.9433      48.731617      2.3577398     -152763.54     -152739.63    
     48000   9.5453748      25829.448      6724.9433      48.731617      2.3577398     -152763.26     -152740.67    
     48100   9.7002833      48422.268      6724.9433      48.731617      2.3577398     -152764.3      -152741.34    
     48200   9.908269       21286.672      6724.9433      48.731617      2.3577398     -152764.53     -152741.08    
     48300   10.121163      29313.66       6724.9433      48.731617      2.3577398     -152764.88     -152740.93    
     48400   10.186074      30614.102      6724.9433      48.731617      2.3577398     -152765.97     -152741.86    
     48500   10.107252      35272.7        6724.9433      48.731617      2.3577398     -152767.49     -152743.57    
     48600   9.6723218      32120.116      6724.9433      48.731617      2.3577398     -152767.79     -152744.89    
     48700   9.4758688      28347.928      6724.9433      48.731617      2.3577398     -152767.15     -152744.73    
     48800   9.9358994      34627.601      6724.9433      48.731617      2.3577398     -152766.72     -152743.21    
     48900   10.76909       27191.806      6724.9433      48.731617      2.3577398     -152767.88     -152742.39    
     49000   10.067808      32866.99       6724.9433      48.731617      2.3577398     -152767.02     -152743.19    
     49100   10.012555      21376.747      6724.9433      48.731617      2.3577398     -152768.4      -152744.7     
     49200   9.5083859      19726.004      6724.9433      48.731617      2.3577398     -152767.81     -152745.31    
     49300   10.034487      33717.303      6724.9433      48.731617      2.3577398     -152767.98     -152744.23    
     49400   10.646322      19166.959      6724.9433      48.731617      2.3577398     -152769.25     -152744.05    
     49500   10.167556      39550.309      6724.9433      48.731617      2.3577398     -152769.76     -152745.7     
     49600   9.5904992      17462.415      6724.9433      48.731617      2.3577398     -152770.55     -152747.85    
     49700   9.6995295      35884.214      6724.9433      48.731617      2.3577398     -152771.65     -152748.7     
     49800   9.8655443      23200.1        6724.9433      48.731617      2.3577398     -152770.61     -152747.26    
     49900   10.008065      30490.694      6724.9433      48.731617      2.3577398     -152768.95     -152745.26    
     50000   10.317164      31054.529      6724.9433      48.731617      2.3577398     -152768.94     -152744.52    
     50100   10.058019      26560.712      6724.9433      48.731617      2.3577398     -152769.14     -152745.33    
     50200   9.8070712      31432.218      6724.9433      48.731617      2.3577398     -152770.28     -152747.07    
     50300   9.6514473      15441.046      6724.9433      48.731617      2.3577398     -152771.18     -152748.34    
     50400   9.4598099      32946.681      6724.9433      48.731617      2.3577398     -152771.06     -152748.68    
     50500   9.9178212      13064.89       6724.9433      48.731617      2.3577398     -152771.86     -152748.39    
     50600   10.549977      30141.291      6724.9433      48.731617      2.3577398     -152773.21     -152748.24    
     50700   10.176169      26395.263      6724.9433      48.731617      2.3577398     -152772.96     -152748.88    
     50800   10.000197      20993.476      6724.9433      48.731617      2.3577398     -152773.17     -152749.5     
     50900   9.9083196      30116.32       6724.9433      48.731617      2.3577398     -152773.19     -152749.74    
     51000   10.245113      18837.492      6724.9433      48.731617      2.3577398     -152773.47     -152749.23    
     51100   10.370763      29549.215      6724.9433      48.731617      2.3577398     -152772.69     -152748.14    
     51200   10.269859      16634.921      6724.9433      48.731617      2.3577398     -152772.05     -152747.74    
     51300   10.156573      30169.264      6724.9433      48.731617      2.3577398     -152772.5      -152748.46    
     51400   10.196305      11976.517      6724.9433      48.731617      2.3577398     -152773.89     -152749.75    
     51500   9.659696       27304.85       6724.9433      48.731617      2.3577398     -152773.43     -152750.57    
     51600   9.6025624      18803.922      6724.9433      48.731617      2.3577398     -152773.32     -152750.59    
     51700   9.8785971      28122.55       6724.9433      48.731617      2.3577398     -152773.28     -152749.9     
     51800   10.159908      25903.757      6724.9433      48.731617      2.3577398     -152773.23     -152749.18    
     51900   9.9386804      24156.025      6724.9433      48.731617      2.3577398     -152772.52     -152748.99    
     52000   9.4587494      28674.57       6724.9433      48.731617      2.3577398     -152772.58     -152750.2     
     52100   9.4879541      23996.06       6724.9433      48.731617      2.3577398     -152772.91     -152750.45    
     52200   10.086604      22449.641      6724.9433      48.731617      2.3577398     -152772.66     -152748.78    
     52300   10.35951       19636.619      6724.9433      48.731617      2.3577398     -152773        -152748.48    
     52400   10.071877      30798.685      6724.9433      48.731617      2.3577398     -152772.94     -152749.1     
     52500   10.171212      22852.752      6724.9433      48.731617      2.3577398     -152774.14     -152750.07    
     52600   9.8294569      25596.117      6724.9433      48.731617      2.3577398     -152773.77     -152750.5     
     52700   10.200796      19266.505      6724.9433      48.731617      2.3577398     -152773.21     -152749.07    
     52800   10.569653      17648.936      6724.9433      48.731617      2.3577398     -152772.91     -152747.9     
     52900   10.209273      24394.938      6724.9433      48.731617      2.3577398     -152772.94     -152748.78    
     53000   9.7576106      25023.297      6724.9433      48.731617      2.3577398     -152772.75     -152749.66    
     53100   9.6914497      24333.296      6724.9433      48.731617      2.3577398     -152772.34     -152749.4     
     53200   10.036385      28184.792      6724.9433      48.731617      2.3577398     -152772.26     -152748.51    
     53300   10.277096      21867.014      6724.9433      48.731617      2.3577398     -152772.75     -152748.43    
     53400   10.057005      25705.815      6724.9433      48.731617      2.3577398     -152772.34     -152748.54    
     53500   9.8861842      24223.401      6724.9433      48.731617      2.3577398     -152772.51     -152749.11    
     53600   10.039983      20083.79       6724.9433      48.731617      2.3577398     -152773.4      -152749.64    
     53700   9.5405425      15043.66       6724.9433      48.731617      2.3577398     -152772.84     -152750.26    
     53800   9.7733009      22549.747      6724.9433      48.731617      2.3577398     -152772.54     -152749.41    
     53900   10.186329      18963.23       6724.9433      48.731617      2.3577398     -152772.2      -152748.09    
     54000   10.033287      29309.941      6724.9433      48.731617      2.3577398     -152771.69     -152747.94    
     54100   10.227351      25825.068      6724.9433      48.731617      2.3577398     -152772.28     -152748.07    
     54200   10.177409      24098.276      6724.9433      48.731617      2.3577398     -152771.75     -152747.66    
     54300   10.425328      23663.008      6724.9433      48.731617      2.3577398     -152771.07     -152746.39    
     54400   10.47053       17861.688      6724.9433      48.731617      2.3577398     -152770.78     -152746       
     54500   10.041071      20211.103      6724.9433      48.731617      2.3577398     -152771.22     -152747.45    
     54600   9.6797431      23850.144      6724.9433      48.731617      2.3577398     -152771.22     -152748.31    
     54700   9.6789729      17586.391      6724.9433      48.731617      2.3577398     -152770.6      -152747.69    
     54800   9.7857636      29145.44       6724.9433      48.731617      2.3577398     -152770.16     -152747       
     54900   9.9668412      18359.158      6724.9433      48.731617      2.3577398     -152770.11     -152746.52    
     55000   10.289588      28444.518      6724.9433      48.731617      2.3577398     -152770.55     -152746.19    
     55100   10.104822      15278.806      6724.9433      48.731617      2.3577398     -152769.29     -152745.37    
     55200   10.692207      25202.398      6724.9433      48.731617      2.3577398     -152768.86     -152743.56    
     55300   10.081108      17735.981      6724.9433      48.731617      2.3577398     -152768.46     -152744.6     
     55400   9.948959       15594.335      6724.9433      48.731617      2.3577398     -152769.36     -152745.82    
     55500   9.8730774      25052.603      6724.9433      48.731617      2.3577398     -152769.38     -152746.01    
     55600   9.7808333      14962.627      6724.9433      48.731617      2.3577398     -152769.09     -152745.94    
     55700   9.9765632      23136.338      6724.9433      48.731617      2.3577398     -152769.32     -152745.71    
     55800   10.04717       27284.652      6724.9433      48.731617      2.3577398     -152769.03     -152745.25    
     55900   10.106017      24251.94       6724.9433      48.731617      2.3577398     -152768.58     -152744.66    
     56000   9.9570163      24283.781      6724.9433      48.731617      2.3577398     -152768.57     -152745       
     56100   9.7713942      20840.116      6724.9433      48.731617      2.3577398     -152769.1      -152745.97    
     56200   9.5450386      20148.115      6724.9433      48.731617      2.3577398     -152769.09     -152746.5     
     56300   9.9363915      21560.693      6724.9433      48.731617      2.3577398     -152769.41     -152745.89    
     56400   10.389365      30311.054      6724.9433      48.731617      2.3577398     -152769        -152744.41    
     56500   10.512801      23247.167      6724.9433      48.731617      2.3577398     -152769.21     -152744.33    
     56600   10.01287       22870.582      6724.9433      48.731617      2.3577398     -152768.92     -152745.22    
     56700   9.4629468      23656.348      6724.9433      48.731617      2.3577398     -152769.08     -152746.68    
     56800   9.9112383      16158.468      6724.9433      48.731617      2.3577398     -152769.77     -152746.32    
     56900   9.5919614      35059.552      6724.9433      48.731617      2.3577398     -152768.37     -152745.67    
     57000   9.821909       20641.191      6724.9433      48.731617      2.3577398     -152768.14     -152744.89    
     57100   9.713807       24727.431      6724.9433      48.731617      2.3577398     -152767.08     -152744.09    
     57200   10.22424       19281.086      6724.9433      48.731617      2.3577398     -152767.48     -152743.28    
     57300   10.689596      27751.638      6724.9433      48.731617      2.3577398     -152767.24     -152741.94    
     57400   10.583715      21549.054      6724.9433      48.731617      2.3577398     -152766.22     -152741.17    
     57500   10.063717      23203.677      6724.9433      48.731617      2.3577398     -152767.25     -152743.44    
     57600   10.284674      19009.912      6724.9433      48.731617      2.3577398     -152768.48     -152744.14    
     57700   10.055249      15342.018      6724.9433      48.731617      2.3577398     -152768.63     -152744.83    
     57800   9.4509349      33326.445      6724.9433      48.731617      2.3577398     -152767.13     -152744.76    
     57900   9.9772865      22071.141      6724.9433      48.731617      2.3577398     -152766.91     -152743.29    
     58000   10.209791      30337.39       6724.9433      48.731617      2.3577398     -152766.72     -152742.55    
     58100   10.238774      20721.683      6724.9433      48.731617      2.3577398     -152766.81     -152742.58    
     58200   10.086802      25183.787      6724.9433      48.731617      2.3577398     -152767        -152743.13    
     58300   9.7733363      18131.24       6724.9433      48.731617      2.3577398     -152768.14     -152745       
     58400   9.4968359      25094.257      6724.9433      48.731617      2.3577398     -152767.48     -152745       
     58500   9.534464       15356.545      6724.9433      48.731617      2.3577398     -152766.83     -152744.26    
     58600   10.107147      15750.932      6724.9433      48.731617      2.3577398     -152767.73     -152743.8     
     58700   9.8878003      25485.282      6724.9433      48.731617      2.3577398     -152766.68     -152743.28    
     58800   9.7980931      9008.0343      6724.9433      48.731617      2.3577398     -152765.76     -152742.57    
     58900   10.469124      32308.769      6724.9433      48.731617      2.3577398     -152765.91     -152741.14    
     59000   10.432894      22383.661      6724.9433      48.731617      2.3577398     -152764.83     -152740.14    
     59100   10.148215      27176.923      6724.9433      48.731617      2.3577398     -152764.84     -152740.82    
     59200   9.7524434      20758.342      6724.9433      48.731617      2.3577398     -152765.64     -152742.56    
     59300   9.8676064      23620.361      6724.9433      48.731617      2.3577398     -152766.14     -152742.79    
     59400   9.8698347      19132.314      6724.9433      48.731617      2.3577398     -152765.53     -152742.17    
     59500   10.111576      23283.927      6724.9433      48.731617      2.3577398     -152764.86     -152740.93    
     59600   10.051477      27979.013      6724.9433      48.731617      2.3577398     -152765.01     -152741.22    
     59700   9.6737939      11777.864      6724.9433      48.731617      2.3577398     -152766.31     -152743.42    
     59800   9.9097346      29634.234      6724.9433      48.731617      2.3577398     -152766.66     -152743.2     
     59900   9.8463198      20732.434      6724.9433      48.731617      2.3577398     -152765.09     -152741.78    
     60000   9.8694048      20710.888      6724.9433      48.731617      2.3577398     -152763.83     -152740.47    
     60100   10.316735      19486.579      6724.9433      48.731617      2.3577398     -152764.07     -152739.65    
     60200   10.318115      16542.101      6724.9433      48.731617      2.3577398     -152763.23     -152738.81    
     60300   9.9746118      22053.521      6724.9433      48.731617      2.3577398     -152762.04     -152738.43    
     60400   10.336219      15013.151      6724.9433      48.731617      2.3577398     -152763.51     -152739.05    
     60500   9.8059056      34559.317      6724.9433      48.731617      2.3577398     -152763.93     -152740.72    
     60600   9.9126334      12822.74       6724.9433      48.731617      2.3577398     -152764.7      -152741.24    
     60700   10.020617      38689.969      6724.9433      48.731617      2.3577398     -152763.87     -152740.16    
     60800   10.17955       11794.859      6724.9433      48.731617      2.3577398     -152762.91     -152738.82    
     60900   9.8411835      24730.702      6724.9433      48.731617      2.3577398     -152762.08     -152738.79    
     61000   9.6711794      25894.605      6724.9433      48.731617      2.3577398     -152761.57     -152738.68    
     61100   9.9109212      18103.808      6724.9433      48.731617      2.3577398     -152761.81     -152738.35    
     61200   10.148217      33005.6        6724.9433      48.731617      2.3577398     -152760.05     -152736.03    
     61300   10.591768      7530.1161      6724.9433      48.731617      2.3577398     -152760.95     -152735.88    
     61400   10.846146      27776.415      6724.9433      48.731617      2.3577398     -152762.7      -152737.03    
     61500   9.766736       19607.735      6724.9433      48.731617      2.3577398     -152761.28     -152738.17    
     61600   9.8701975      28794.641      6724.9433      48.731617      2.3577398     -152761.86     -152738.5     
     61700   9.7969348      15684.396      6724.9433      48.731617      2.3577398     -152762.18     -152739       
     61800   9.7488579      20156.488      6724.9433      48.731617      2.3577398     -152762.94     -152739.87    
     61900   9.3329919      22137.162      6724.9433      48.731617      2.3577398     -152763.32     -152741.23    
     62000   9.8283355      20589.314      6724.9433      48.731617      2.3577398     -152763.21     -152739.95    
     62100   9.9199527      27978.351      6724.9433      48.731617      2.3577398     -152762.36     -152738.88    
     62200   10.198167      16700.71       6724.9433      48.731617      2.3577398     -152762        -152737.86    
     62300   10.273252      25244.891      6724.9433      48.731617      2.3577398     -152761.43     -152737.12    
     62400   10.301097      18160.499      6724.9433      48.731617      2.3577398     -152761.13     -152736.75    
     62500   10.20237       18243.991      6724.9433      48.731617      2.3577398     -152762.05     -152737.9     
     62600   9.7597436      23359.701      6724.9433      48.731617      2.3577398     -152762.48     -152739.38    
     62700   9.8050049      21025.077      6724.9433      48.731617      2.3577398     -152762.52     -152739.31    
     62800   10.224848      21767.355      6724.9433      48.731617      2.3577398     -152762.81     -152738.61    
     62900   9.8592129      11186.208      6724.9433      48.731617      2.3577398     -152762.52     -152739.19    
     63000   9.604883       22625.064      6724.9433      48.731617      2.3577398     -152763.74     -152741       
     63100   9.5494119      21339.586      6724.9433      48.731617      2.3577398     -152763.6      -152741       
     63200   9.8736058      36113.727      6724.9433      48.731617      2.3577398     -152763.03     -152739.67    
     63300   10.129362      26989.981      6724.9433      48.731617      2.3577398     -152762.64     -152738.67    
     63400   9.8432141      16501.196      6724.9433      48.731617      2.3577398     -152761.66     -152738.37    
     63500   10.2565        26332.217      6724.9433      48.731617      2.3577398     -152762.52     -152738.24    
     63600   10.057732      12232.376      6724.9433      48.731617      2.3577398     -152762.87     -152739.07    
     63700   9.7232732      19763.64       6724.9433      48.731617      2.3577398     -152763.67     -152740.65    
     63800   10.125465      28423.047      6724.9433      48.731617      2.3577398     -152765.01     -152741.05    
     63900   10.13174       21707.27       6724.9433      48.731617      2.3577398     -152763.96     -152739.98    
     64000   10.874258      27642.865      6724.9433      48.731617      2.3577398     -152764.09     -152738.36    
     64100   10.428589      19156.758      6724.9433      48.731617      2.3577398     -152763.67     -152738.98    
     64200   10.150385      19937.358      6724.9433      48.731617      2.3577398     -152763.77     -152739.74    
     64300   9.7402074      26182.583      6724.9433      48.731617      2.3577398     -152763.09     -152740.03    
     64400   9.8295298      18484.05       6724.9433      48.731617      2.3577398     -152763.23     -152739.96    
     64500   9.9791658      14746.055      6724.9433      48.731617      2.3577398     -152762.06     -152738.44    
[...]
    384200   9.7196251      21631.259      6724.9433      48.731617      2.3577398     -152768.9      -152745.89    
    384300   10.01441       26239.432      6724.9433      48.731617      2.3577398     -152767.92     -152744.21    
    384400   10.047257      23083.864      6724.9433      48.731617      2.3577398     -152767.88     -152744.1     
    384500   10.037421      17100.527      6724.9433      48.731617      2.3577398     -152768.76     -152745       
    384600   10.127939      30840.481      6724.9433      48.731617      2.3577398     -152769.57     -152745.6     
    384700   10.105475      19219.519      6724.9433      48.731617      2.3577398     -152769.44     -152745.52    
    384800   10.117705      33799.302      6724.9433      48.731617      2.3577398     -152769.32     -152745.38    
    384900   10.326039      21157.882      6724.9433      48.731617      2.3577398     -152769.98     -152745.54    
    385000   10.041742      25813.881      6724.9433      48.731617      2.3577398     -152769.64     -152745.87    
    385100   9.7646842      20615.508      6724.9433      48.731617      2.3577398     -152769.45     -152746.34    
    385200   9.4077049      20023.856      6724.9433      48.731617      2.3577398     -152769        -152746.74    
    385300   9.8172721      27570.927      6724.9433      48.731617      2.3577398     -152769.33     -152746.1     
    385400   10.107806      18178.545      6724.9433      48.731617      2.3577398     -152768.94     -152745.02    
    385500   9.8946884      31328.22       6724.9433      48.731617      2.3577398     -152768.14     -152744.72    
    385600   9.859846       14245.813      6724.9433      48.731617      2.3577398     -152768.35     -152745.02    
    385700   9.885436       30516.191      6724.9433      48.731617      2.3577398     -152769.84     -152746.44    
    385800   9.457656       12261.958      6724.9433      48.731617      2.3577398     -152769.14     -152746.76    
    385900   10.152204      23916.702      6724.9433      48.731617      2.3577398     -152769.55     -152745.52    
    386000   10.286862      23633.188      6724.9433      48.731617      2.3577398     -152768.9      -152744.55    
    386100   9.8382         20949.128      6724.9433      48.731617      2.3577398     -152768.04     -152744.76    
    386200   9.8831376      31606.596      6724.9433      48.731617      2.3577398     -152768.36     -152744.96    
    386300   9.9590163      25698.417      6724.9433      48.731617      2.3577398     -152768.2      -152744.63    
    386400   10.024921      29136.126      6724.9433      48.731617      2.3577398     -152766.87     -152743.14    
    386500   10.544365      16118.653      6724.9433      48.731617      2.3577398     -152767.62     -152742.67    
    386600   10.100996      21877.807      6724.9433      48.731617      2.3577398     -152768.35     -152744.44    
    386700   9.8734369      29353.71       6724.9433      48.731617      2.3577398     -152768.43     -152745.06    
    386800   9.8182856      26015.629      6724.9433      48.731617      2.3577398     -152767.7      -152744.47    
    386900   10.074598      32132.295      6724.9433      48.731617      2.3577398     -152767.28     -152743.44    
    387000   10.035902      17088.76       6724.9433      48.731617      2.3577398     -152766.2      -152742.45    
    387100   10.526032      22516.57       6724.9433      48.731617      2.3577398     -152767.51     -152742.6     
    387200   10.002109      25902.506      6724.9433      48.731617      2.3577398     -152766.94     -152743.27    
    387300   9.7668851      20795.629      6724.9433      48.731617      2.3577398     -152766.24     -152743.12    
    387400   9.7659566      25973.035      6724.9433      48.731617      2.3577398     -152765.72     -152742.6     
    387500   10.076058      16639.882      6724.9433      48.731617      2.3577398     -152766.01     -152742.16    
    387600   10.275975      29884.95       6724.9433      48.731617      2.3577398     -152765.49     -152741.17    
    387700   10.932529      24250.748      6724.9433      48.731617      2.3577398     -152766.97     -152741.1     
    387800   9.8875158      25424.359      6724.9433      48.731617      2.3577398     -152765.97     -152742.57    
    387900   9.9249526      22792.554      6724.9433      48.731617      2.3577398     -152766.88     -152743.39    
    388000   10.149481      24332.983      6724.9433      48.731617      2.3577398     -152767.39     -152743.37    
    388100   10.221784      24446.327      6724.9433      48.731617      2.3577398     -152768.12     -152743.92    
    388200   9.8558581      16188.271      6724.9433      48.731617      2.3577398     -152768.83     -152745.51    
    388300   9.8447758      25091.061      6724.9433      48.731617      2.3577398     -152769.24     -152745.94    
    388400   9.9868272      22288.597      6724.9433      48.731617      2.3577398     -152768.7      -152745.06    
    388500   10.209217      28330.072      6724.9433      48.731617      2.3577398     -152768.44     -152744.27    
    388600   9.9201772      19557.07       6724.9433      48.731617      2.3577398     -152768.03     -152744.55    
    388700   9.7215286      30681.218      6724.9433      48.731617      2.3577398     -152768.05     -152745.04    
    388800   9.7605202      24670.246      6724.9433      48.731617      2.3577398     -152769.24     -152746.14    
    388900   10.073137      30601.181      6724.9433      48.731617      2.3577398     -152770.51     -152746.67    
    389000   9.8314853      20445.643      6724.9433      48.731617      2.3577398     -152771.55     -152748.28    
    389100   9.5732345      21600.795      6724.9433      48.731617      2.3577398     -152771.2      -152748.54    
    389200   9.7960107      27027.802      6724.9433      48.731617      2.3577398     -152770.35     -152747.17    
    389300   10.172465      13933.606      6724.9433      48.731617      2.3577398     -152770.32     -152746.24    
    389400   10.145363      33612.089      6724.9433      48.731617      2.3577398     -152770.09     -152746.08    
    389500   9.6653476      17975.985      6724.9433      48.731617      2.3577398     -152770.12     -152747.25    
    389600   9.60471        33873.671      6724.9433      48.731617      2.3577398     -152770.87     -152748.14    
    389700   9.9509189      22133.745      6724.9433      48.731617      2.3577398     -152771.17     -152747.62    
    389800   10.066754      26472.265      6724.9433      48.731617      2.3577398     -152770.99     -152747.17    
    389900   10.064139      31755.71       6724.9433      48.731617      2.3577398     -152770.78     -152746.96    
    390000   10.163388      15139.974      6724.9433      48.731617      2.3577398     -152770.6      -152746.55    
    390100   10.148631      36153.11       6724.9433      48.731617      2.3577398     -152769.2      -152745.18    
    390200   10.451481      14547.027      6724.9433      48.731617      2.3577398     -152768.61     -152743.88    
    390300   10.131821      36426.82       6724.9433      48.731617      2.3577398     -152768.59     -152744.61    
    390400   10.038242      13315.541      6724.9433      48.731617      2.3577398     -152769.62     -152745.87    
    390500   9.780065       34711.866      6724.9433      48.731617      2.3577398     -152769.18     -152746.03    
    390600   9.5619274      20058.176      6724.9433      48.731617      2.3577398     -152768.58     -152745.95    
    390700   10.189266      23501.046      6724.9433      48.731617      2.3577398     -152769.44     -152745.32    
    390800   10.074089      28834.79       6724.9433      48.731617      2.3577398     -152768        -152744.15    
    390900   10.05099       17117.265      6724.9433      48.731617      2.3577398     -152768.01     -152744.23    
    391000   9.6746566      33360.267      6724.9433      48.731617      2.3577398     -152768.67     -152745.77    
    391100   9.5191916      13226.34       6724.9433      48.731617      2.3577398     -152768.73     -152746.2     
    391200   9.8774158      36012.511      6724.9433      48.731617      2.3577398     -152768.76     -152745.39    
    391300   10.230561      23612.429      6724.9433      48.731617      2.3577398     -152768.3      -152744.09    
    391400   10.523712      30294.753      6724.9433      48.731617      2.3577398     -152768.63     -152743.73    
    391500   10.354253      33090.838      6724.9433      48.731617      2.3577398     -152768.58     -152744.08    
    391600   9.9488373      11046.797      6724.9433      48.731617      2.3577398     -152768.73     -152745.18    
    391700   9.894929       32162.635      6724.9433      48.731617      2.3577398     -152769.39     -152745.97    
    391800   9.7400809      10517.895      6724.9433      48.731617      2.3577398     -152769.48     -152746.43    
    391900   10.215121      34697.514      6724.9433      48.731617      2.3577398     -152769.19     -152745.01    
    392000   10.010748      22405.713      6724.9433      48.731617      2.3577398     -152767.51     -152743.82    
    392100   9.6295107      32507.808      6724.9433      48.731617      2.3577398     -152767.18     -152744.39    
    392200   9.7776315      30273.772      6724.9433      48.731617      2.3577398     -152768.42     -152745.28    
    392300   9.9416073      19974.317      6724.9433      48.731617      2.3577398     -152769.5      -152745.97    
    392400   9.6783642      30903.984      6724.9433      48.731617      2.3577398     -152768.56     -152745.65    
    392500   10.501742      13329.186      6724.9433      48.731617      2.3577398     -152768.58     -152743.72    
    392600   10.588972      41200.218      6724.9433      48.731617      2.3577398     -152768.62     -152743.55    
    392700   9.9811702      16071.398      6724.9433      48.731617      2.3577398     -152768.51     -152744.89    
    392800   9.9068372      31144.831      6724.9433      48.731617      2.3577398     -152768.88     -152745.43    
    392900   9.6489558      29276.505      6724.9433      48.731617      2.3577398     -152768.11     -152745.28    
    393000   9.872336       19277.713      6724.9433      48.731617      2.3577398     -152767.55     -152744.18    
    393100   10.429403      35706.01       6724.9433      48.731617      2.3577398     -152767.3      -152742.61    
    393200   10.199323      11755.259      6724.9433      48.731617      2.3577398     -152767.79     -152743.65    
    393300   10.095213      35357.976      6724.9433      48.731617      2.3577398     -152769.2      -152745.31    
    393400   9.8694949      14148.879      6724.9433      48.731617      2.3577398     -152769.08     -152745.72    
    393500   10.010634      36005.564      6724.9433      48.731617      2.3577398     -152768.96     -152745.27    
    393600   10.229691      23635.374      6724.9433      48.731617      2.3577398     -152768.65     -152744.44    
    393700   10.195978      24305.724      6724.9433      48.731617      2.3577398     -152768.37     -152744.23    
    393800   9.9515622      34495.016      6724.9433      48.731617      2.3577398     -152768.68     -152745.13    
    393900   9.6504473      17018.478      6724.9433      48.731617      2.3577398     -152768.78     -152745.94    
    394000   10.208302      26885.706      6724.9433      48.731617      2.3577398     -152769.15     -152744.99    
    394100   10.368378      19114.475      6724.9433      48.731617      2.3577398     -152767.87     -152743.33    
    394200   10.206569      30567.972      6724.9433      48.731617      2.3577398     -152767.42     -152743.26    
    394300   10.257361      20583.852      6724.9433      48.731617      2.3577398     -152768.01     -152743.74    
    394400   10.374011      29459.558      6724.9433      48.731617      2.3577398     -152769.13     -152744.58    
    394500   9.930603       26988.549      6724.9433      48.731617      2.3577398     -152768.86     -152745.36    
    394600   9.9222726      24919.857      6724.9433      48.731617      2.3577398     -152768.55     -152745.07    
    394700   9.7446314      33884.601      6724.9433      48.731617      2.3577398     -152767.71     -152744.65    
    394800   10.153949      14263.684      6724.9433      48.731617      2.3577398     -152768.28     -152744.25    
    394900   10.367723      36991.502      6724.9433      48.731617      2.3577398     -152769.3      -152744.76    
    395000   9.8974585      11870.589      6724.9433      48.731617      2.3577398     -152770.02     -152746.59    
    395100   9.8357475      29019.763      6724.9433      48.731617      2.3577398     -152769.86     -152746.58    
    395200   10.207185      19080.455      6724.9433      48.731617      2.3577398     -152769.33     -152745.17    
    395300   10.271852      29642.588      6724.9433      48.731617      2.3577398     -152768.83     -152744.51    
    395400   10.630693      32978.594      6724.9433      48.731617      2.3577398     -152769.47     -152744.3     
    395500   10.19524       19814.214      6724.9433      48.731617      2.3577398     -152768.71     -152744.58    
    395600   9.6925295      28058.844      6724.9433      48.731617      2.3577398     -152768.47     -152745.53    
    395700   9.598206       13650.522      6724.9433      48.731617      2.3577398     -152768.77     -152746.06    
    395800   10.129828      32487.782      6724.9433      48.731617      2.3577398     -152769.15     -152745.18    
    395900   10.277305      20869.995      6724.9433      48.731617      2.3577398     -152768.37     -152744.04    
    396000   10.083861      25881.514      6724.9433      48.731617      2.3577398     -152768.3      -152744.43    
    396100   9.9738916      33978.808      6724.9433      48.731617      2.3577398     -152769.37     -152745.76    
    396200   9.6606544      23226.988      6724.9433      48.731617      2.3577398     -152769.25     -152746.39    
    396300   9.9063282      32692.698      6724.9433      48.731617      2.3577398     -152769        -152745.55    
    396400   9.862152       17498.094      6724.9433      48.731617      2.3577398     -152768.39     -152745.05    
    396500   10.119752      27559.659      6724.9433      48.731617      2.3577398     -152768.18     -152744.23    
    396600   10.395631      28003.149      6724.9433      48.731617      2.3577398     -152768.26     -152743.65    
    396700   9.9950222      25554.257      6724.9433      48.731617      2.3577398     -152768.18     -152744.52    
    396800   9.6572635      33331.953      6724.9433      48.731617      2.3577398     -152768.93     -152746.08    
    396900   10.06974       30319.756      6724.9433      48.731617      2.3577398     -152769.75     -152745.92    
    397000   10.316576      31066.946      6724.9433      48.731617      2.3577398     -152769.82     -152745.4     
    397100   9.8899524      23867.358      6724.9433      48.731617      2.3577398     -152769.14     -152745.73    
    397200   9.8253187      20490.922      6724.9433      48.731617      2.3577398     -152770.67     -152747.41    
    397300   9.7902381      25517.103      6724.9433      48.731617      2.3577398     -152770.98     -152747.81    
    397400   9.8210929      16948.266      6724.9433      48.731617      2.3577398     -152770.04     -152746.8     
    397500   9.8661821      29878.735      6724.9433      48.731617      2.3577398     -152769.34     -152745.99    
    397600   10.126684      20968.183      6724.9433      48.731617      2.3577398     -152769.39     -152745.42    
    397700   10.292896      26300.722      6724.9433      48.731617      2.3577398     -152769.26     -152744.9     
    397800   9.7769664      29859.596      6724.9433      48.731617      2.3577398     -152768.76     -152745.62    
    397900   9.6555381      20602.449      6724.9433      48.731617      2.3577398     -152769.98     -152747.13    
    398000   9.4151495      31567.648      6724.9433      48.731617      2.3577398     -152769.53     -152747.25    
    398100   9.6195191      17216.528      6724.9433      48.731617      2.3577398     -152769.44     -152746.67    
    398200   9.9938811      34996.062      6724.9433      48.731617      2.3577398     -152769.49     -152745.83    
    398300   10.060629      20068.74       6724.9433      48.731617      2.3577398     -152768.73     -152744.92    
    398400   10.360108      33222.836      6724.9433      48.731617      2.3577398     -152768.94     -152744.42    
    398500   10.01891       19914.488      6724.9433      48.731617      2.3577398     -152768.69     -152744.98    
    398600   9.4919072      22006.918      6724.9433      48.731617      2.3577398     -152769.15     -152746.69    
    398700   9.526355       30208.543      6724.9433      48.731617      2.3577398     -152769.15     -152746.6     
    398800   9.8103343      21644.605      6724.9433      48.731617      2.3577398     -152768.75     -152745.53    
    398900   10.040665      26412.35       6724.9433      48.731617      2.3577398     -152768.61     -152744.85    
    399000   10.264229      26353.562      6724.9433      48.731617      2.3577398     -152768.7      -152744.41    
    399100   10.169368      23355.468      6724.9433      48.731617      2.3577398     -152768.63     -152744.56    
    399200   9.5455603      29382.803      6724.9433      48.731617      2.3577398     -152768.48     -152745.89    
    399300   9.7051893      24788.353      6724.9433      48.731617      2.3577398     -152769.35     -152746.38    
    399400   9.9329882      22674.694      6724.9433      48.731617      2.3577398     -152768.24     -152744.73    
    399500   9.8911384      24198.238      6724.9433      48.731617      2.3577398     -152767.59     -152744.18    
    399600   10.074637      25739.332      6724.9433      48.731617      2.3577398     -152768.41     -152744.57    
    399700   9.732908       26804.706      6724.9433      48.731617      2.3577398     -152767.57     -152744.54    
    399800   9.7508775      24497.647      6724.9433      48.731617      2.3577398     -152767.29     -152744.21    
    399900   10.325986      30915.312      6724.9433      48.731617      2.3577398     -152767.06     -152742.62    
    400000   10.506481      22217.668      6724.9433      48.731617      2.3577398     -152767.36     -152742.49    
    400011   10.332144      20176.024      6724.9433      48.731617      2.3577398     -152767.05     -152742.6     
Loop time of 14527 on 64 procs for 400000 steps with 795 atoms

Performance: 0.595 ns/day, 40.353 hours/ns, 27.535 timesteps/s
99.6% CPU use with 64 MPI tasks x 1 OpenMP threads

MPI task timing breakdown:
Section |  min time  |  avg time  |  max time  |%varavg| %total
---------------------------------------------------------------
Pair    | 7777.5     | 10668      | 13073      |1460.8 | 73.44
Neigh   | 8.3747     | 11.547     | 13.883     |  47.5 |  0.08
Comm    | 304.29     | 2505.8     | 5021       |2743.9 | 17.25
Output  | 0.5259     | 1.0034     | 1.4532     |  30.0 |  0.01
Modify  | 1125.9     | 1337.6     | 1752.1     | 534.1 |  9.21
Other   |            | 2.716      |            |       |  0.02

Nlocal:        12.4219 ave          15 max           5 min
Histogram: 3 1 0 1 2 4 6 1 21 25
Nghost:        2102.66 ave        2399 max        1790 min
Histogram: 9 7 0 5 5 9 13 2 4 10
Neighs:        6840.19 ave        8871 max        2002 min
Histogram: 4 0 0 2 7 6 3 8 22 12

Total # of neighbors = 437772
Ave neighs/atom = 550.6566
Neighbor list builds = 1103
Dangerous builds = 0

write_data graphene_single_layer_ReaxFF_750_C_temp_10K.data ### MODIFY FILE NAME ###
System init for write_data ...
Total wall time: 4:02:09
