
# System definition
read_data graphene_single_layer_x-45_y-45_795_C.data ### MODIFY FILE NAME ###
Reading data file ...
  orthogonal box = (-1.4464652 -1.4423034 -1.42) to (47.285152 47.149102 1.42)
  8 by 8 by 1 MPI processor grid
  reading atoms ...
  795 atoms
  reading velocities ...
  795 velocities
  read_data CPU = 0.036 seconds

pair_style reax/c NULL
pair_coeff * * ffield.reax.cho C
Reading potential file ffield.reax.cho with DATE: 2011-02-18
fix qeq_reax all qeq/reax 1 0.0 10.0 1.0e-6 reax/c


# Minimization
timestep 0.25
min_style cg
thermo 100
thermo_style custom step temp press vol lx density pe etotal
dump 2 all custom 1000 graphene_single_layer_ReaxFF_795_C_temp_5K.lammpstrj id type x y z ### MODIFY FILE NAME ###
minimize 1.0e-6 1.0e-6 100 1000

CITE-CITE-CITE-CITE-CITE-CITE-CITE-CITE-CITE-CITE-CITE-CITE-CITE

Your simulation uses code contributions which should be cited:

- pair reaxff command:

@Article{Aktulga12,
 author = {H. M. Aktulga, J. C. Fogarty, S. A. Pandit, A. Y. Grama},
 title = {Parallel reactive molecular dynamics: Numerical methods and algorithmic techniques},
 journal = {Parallel Computing},
 year =    2012,
 volume =  38,
 pages =   {245--259}
}

- fix qeq/reaxff command:

@Article{Aktulga12,
 author = {H. M. Aktulga, J. C. Fogarty, S. A. Pandit, A. Y. Grama},
 title = {Parallel reactive molecular dynamics: Numerical methods and algorithmic techniques},
 journal = {Parallel Computing},
 year =    2012,
 volume =  38,
 pages =   {245--259}
}

CITE-CITE-CITE-CITE-CITE-CITE-CITE-CITE-CITE-CITE-CITE-CITE-CITE

WARNING: Using 'neigh_modify every 1 delay 0 check yes' setting during minimization (src/min.cpp:187)
Neighbor list info ...
  update every 1 steps, delay 0 steps, check yes
  max neighbors/atom: 10000, page size: 100000
  master list distance cutoff = 10.4
  ghost atom cutoff = 10.4
  binsize = 5.2, bins = 10 10 1
  2 neighbor lists, perpetual/occasional/extra = 2 0 0
  (1) pair reax/c, perpetual
      attributes: half, newton off, ghost
      pair build: half/bin/newtoff/ghost
      stencil: full/ghost/bin/3d
      bin: standard
  (2) fix qeq/reax, perpetual, copy from (1)
      attributes: half, newton off
      pair build: copy
      stencil: none
      bin: none
Per MPI rank memory allocation (min/avg/max) = 36.37 | 41.41 | 47.38 Mbytes
   Step          Temp          Press          Volume           Lx          Density         PotEng         TotEng    
         0   923            34054.396      6724.9433      48.731617      2.3577398     -151766.67     -149582.14    
        11   923            35396.792      6724.9433      48.731617      2.3577398     -151904.55     -149720.03    
Loop time of 2.22464 on 64 procs for 11 steps with 795 atoms

98.9% CPU use with 64 MPI tasks x 1 OpenMP threads

Minimization stats:
  Stopping criterion = energy tolerance
  Energy initial, next-to-last, final = 
     -151766.666472543  -151904.508881892  -151904.547898656
  Force two-norm initial, final = 279.94165 356.09863
  Force max component initial, final = 137.99181 55.448555
  Final line search alpha, max atom move = 0.00038853166 0.021543519
  Iterations, force evaluations = 11 32

MPI task timing breakdown:
Section |  min time  |  avg time  |  max time  |%varavg| %total
---------------------------------------------------------------
Pair    | 0.83796    | 1.2402     | 1.7242     |  16.4 | 55.75
Neigh   | 0.012681   | 0.018446   | 0.025202   |   2.0 |  0.83
Comm    | 0.15462    | 0.50681    | 0.8147     |  22.3 | 22.78
Output  | 0          | 0          | 0          |   0.0 |  0.00
Modify  | 0.3126     | 0.31939    | 0.32501    |   0.5 | 14.36
Other   |            | 0.1398     |            |       |  6.28

Nlocal:        12.4219 ave          15 max          10 min
Histogram: 15 0 0 0 22 0 12 0 0 15
Nghost:        2194.12 ave        2559 max        1869 min
Histogram: 2 8 9 4 12 12 5 4 6 2
Neighs:        6807.34 ave        8856 max        4476 min
Histogram: 4 8 3 7 7 13 5 2 0 15

Total # of neighbors = 435670
Ave neighs/atom = 548.01258
Neighbor list builds = 1
Dangerous builds = 0

fix 1 all nvt temp 5.0 5.0 $(100.0*dt)  ### MODIFY INIT TEMP, FINAL TEMP ###
fix 1 all nvt temp 5.0 5.0 25  
run 400000
Per MPI rank memory allocation (min/avg/max) = 35.25 | 40.29 | 46.26 Mbytes
   Step          Temp          Press          Volume           Lx          Density         PotEng         TotEng    
        11   923            35396.792      6724.9433      48.731617      2.3577398     -151904.55     -149720.03    
       100   104.62764      71232.479      6724.9433      48.731617      2.3577398     -151796.48     -151548.85    
       200   41.506616      14388.052      6724.9433      48.731617      2.3577398     -152296.37     -152198.13    
       300   46.096092      26750.29       6724.9433      48.731617      2.3577398     -152553.73     -152444.63    
       400   22.493702      2261.5186      6724.9433      48.731617      2.3577398     -152638.99     -152585.75    
       500   10.181956      32375.39       6724.9433      48.731617      2.3577398     -152717.14     -152693.04    
       600   6.6789235      18536.599      6724.9433      48.731617      2.3577398     -152742.64     -152726.83    
       700   5.3038379      22393.626      6724.9433      48.731617      2.3577398     -152751.92     -152739.37    
       800   3.1820598      20699.317      6724.9433      48.731617      2.3577398     -152751.45     -152743.92    
       900   4.4159158      12704.612      6724.9433      48.731617      2.3577398     -152753.93     -152743.48    
      1000   6.0639517      32847.064      6724.9433      48.731617      2.3577398     -152753.93     -152739.58    
      1100   6.3717263      12476.545      6724.9433      48.731617      2.3577398     -152751.05     -152735.97    
      1200   4.6054918      33309.5        6724.9433      48.731617      2.3577398     -152748.36     -152737.46    
      1300   4.3841688      16511.252      6724.9433      48.731617      2.3577398     -152750.49     -152740.12    
      1400   4.6259663      22873.418      6724.9433      48.731617      2.3577398     -152751.04     -152740.09    
      1500   4.9819326      28501.347      6724.9433      48.731617      2.3577398     -152748.66     -152736.86    
      1600   5.8668695      10859.763      6724.9433      48.731617      2.3577398     -152746.79     -152732.91    
      1700   6.2430246      33341.223      6724.9433      48.731617      2.3577398     -152747.39     -152732.61    
      1800   5.3697522      19132.058      6724.9433      48.731617      2.3577398     -152749.36     -152736.65    
      1900   4.511421       27059.404      6724.9433      48.731617      2.3577398     -152751.32     -152740.64    
      2000   3.8974454      26598.706      6724.9433      48.731617      2.3577398     -152751.12     -152741.89    
      2100   4.7048486      14242.963      6724.9433      48.731617      2.3577398     -152751.61     -152740.47    
      2200   5.576506       35556.822      6724.9433      48.731617      2.3577398     -152750.98     -152737.78    
      2300   5.430765       11558.587      6724.9433      48.731617      2.3577398     -152749.38     -152736.52    
      2400   5.0538825      27442.031      6724.9433      48.731617      2.3577398     -152749.1      -152737.14    
      2500   4.9876291      19467.219      6724.9433      48.731617      2.3577398     -152749.62     -152737.82    
      2600   4.5533916      17196.323      6724.9433      48.731617      2.3577398     -152748.31     -152737.53    
      2700   5.2415773      26197.292      6724.9433      48.731617      2.3577398     -152748.95     -152736.54    
      2800   5.2108708      13405.049      6724.9433      48.731617      2.3577398     -152748.63     -152736.29    
      2900   5.2148406      27282.012      6724.9433      48.731617      2.3577398     -152749.49     -152737.15    
      3000   4.9069615      12461.596      6724.9433      48.731617      2.3577398     -152749.85     -152738.23    
      3100   4.8463359      30162.659      6724.9433      48.731617      2.3577398     -152750        -152738.53    
      3200   4.8148822      18713.316      6724.9433      48.731617      2.3577398     -152749.76     -152738.37    
      3300   5.2072019      18536.202      6724.9433      48.731617      2.3577398     -152750.69     -152738.36    
      3400   5.1766002      26649.724      6724.9433      48.731617      2.3577398     -152750.63     -152738.38    
      3500   5.0728402      9602.1366      6724.9433      48.731617      2.3577398     -152750.8      -152738.79    
      3600   4.6851125      33959.814      6724.9433      48.731617      2.3577398     -152749.68     -152738.59    
      3700   4.9336803      13256.383      6724.9433      48.731617      2.3577398     -152749.55     -152737.88    
      3800   5.0900119      23246.821      6724.9433      48.731617      2.3577398     -152749.25     -152737.21    
      3900   5.284769       25450.796      6724.9433      48.731617      2.3577398     -152749.34     -152736.84    
      4000   4.8338119      7277.8002      6724.9433      48.731617      2.3577398     -152748.39     -152736.95    
      4100   4.8883909      33677.495      6724.9433      48.731617      2.3577398     -152747.98     -152736.41    
      4200   5.3174831      12040.976      6724.9433      48.731617      2.3577398     -152748.74     -152736.16    
      4300   5.1642696      32985.568      6724.9433      48.731617      2.3577398     -152749.36     -152737.14    
      4400   5.0641829      17025.164      6724.9433      48.731617      2.3577398     -152750.96     -152738.98    
      4500   4.9233633      18067.567      6724.9433      48.731617      2.3577398     -152752.34     -152740.69    
      4600   4.3290617      23413.36       6724.9433      48.731617      2.3577398     -152751.38     -152741.13    
      4700   4.6846521      14536.857      6724.9433      48.731617      2.3577398     -152750.25     -152739.16    
      4800   5.7188047      29005.815      6724.9433      48.731617      2.3577398     -152750.14     -152736.6     
      4900   5.5043584      11076.995      6724.9433      48.731617      2.3577398     -152748.12     -152735.1     
      5000   5.0628122      29452.404      6724.9433      48.731617      2.3577398     -152747.38     -152735.39    
      5100   4.8830923      21602.041      6724.9433      48.731617      2.3577398     -152748.13     -152736.57    
      5200   4.8230603      21670.056      6724.9433      48.731617      2.3577398     -152748.3      -152736.89    
      5300   4.9031183      23936.661      6724.9433      48.731617      2.3577398     -152748.54     -152736.93    
      5400   5.0230888      8643.0884      6724.9433      48.731617      2.3577398     -152749.46     -152737.57    
      5500   4.6733639      29877.148      6724.9433      48.731617      2.3577398     -152750.44     -152739.38    
      5600   4.6428326      11944.934      6724.9433      48.731617      2.3577398     -152752.35     -152741.36    
      5700   4.4519534      27999.013      6724.9433      48.731617      2.3577398     -152751.81     -152741.27    
      5800   4.9052293      21403.889      6724.9433      48.731617      2.3577398     -152750.68     -152739.07    
      5900   5.4161535      21481.94       6724.9433      48.731617      2.3577398     -152748.84     -152736.03    
      6000   5.3925281      26846.244      6724.9433      48.731617      2.3577398     -152746.61     -152733.85    
      6100   5.510256       6840.9088      6724.9433      48.731617      2.3577398     -152747.13     -152734.09    
      6200   5.0600843      26924.896      6724.9433      48.731617      2.3577398     -152747.87     -152735.89    
      6300   4.6201718      9079.1386      6724.9433      48.731617      2.3577398     -152748.54     -152737.6     
      6400   4.8974535      34308.858      6724.9433      48.731617      2.3577398     -152750.32     -152738.73    
      6500   5.0230817      16402.91       6724.9433      48.731617      2.3577398     -152751.33     -152739.44    
      6600   4.7398232      21779.434      6724.9433      48.731617      2.3577398     -152751        -152739.78    
      6700   4.8744324      29119.499      6724.9433      48.731617      2.3577398     -152751.41     -152739.87    
      6800   5.0063805      15834.695      6724.9433      48.731617      2.3577398     -152750.77     -152738.92    
      6900   5.204237       31382.54       6724.9433      48.731617      2.3577398     -152749.8      -152737.48    
      7000   5.1598532      16780.38       6724.9433      48.731617      2.3577398     -152748.23     -152736.01    
      7100   5.2115602      20133.699      6724.9433      48.731617      2.3577398     -152747.81     -152735.47    
      7200   5.318411       26650.932      6724.9433      48.731617      2.3577398     -152748.53     -152735.94    
      7300   4.9867935      14576.513      6724.9433      48.731617      2.3577398     -152748.83     -152737.03    
      7400   4.9114959      28067.801      6724.9433      48.731617      2.3577398     -152749.81     -152738.19    
      7500   4.9027687      21491.183      6724.9433      48.731617      2.3577398     -152750.55     -152738.95    
      7600   5.1184124      24414.737      6724.9433      48.731617      2.3577398     -152751.34     -152739.23    
      7700   4.8981873      21257.054      6724.9433      48.731617      2.3577398     -152750.52     -152738.93    
      7800   5.2468009      17949.541      6724.9433      48.731617      2.3577398     -152750.78     -152738.36    
      7900   5.0477638      22208.492      6724.9433      48.731617      2.3577398     -152749.66     -152737.71    
      8000   5.0703644      17756.235      6724.9433      48.731617      2.3577398     -152748.84     -152736.84    
      8100   4.7536704      26177.526      6724.9433      48.731617      2.3577398     -152748.17     -152736.92    
      8200   4.8694612      16407.677      6724.9433      48.731617      2.3577398     -152748.74     -152737.22    
      8300   4.7467777      22477.552      6724.9433      48.731617      2.3577398     -152749.02     -152737.79    
      8400   4.9379682      19674.722      6724.9433      48.731617      2.3577398     -152749.69     -152738.01    
      8500   5.0535785      15126.634      6724.9433      48.731617      2.3577398     -152749.46     -152737.5     
      8600   5.1419025      26770.276      6724.9433      48.731617      2.3577398     -152749.46     -152737.29    
      8700   5.1645315      17658.641      6724.9433      48.731617      2.3577398     -152749.61     -152737.39    
      8800   4.7606279      27856.936      6724.9433      48.731617      2.3577398     -152749.35     -152738.08    
      8900   4.6069634      20478.188      6724.9433      48.731617      2.3577398     -152749.52     -152738.62    
      9000   4.8467647      19746.194      6724.9433      48.731617      2.3577398     -152749.94     -152738.47    
      9100   5.2096247      30129.53       6724.9433      48.731617      2.3577398     -152750.2      -152737.87    
      9200   5.3797422      10592.448      6724.9433      48.731617      2.3577398     -152750.23     -152737.5     
      9300   5.0606742      35821.278      6724.9433      48.731617      2.3577398     -152749.77     -152737.8     
      9400   4.6995673      13452.951      6724.9433      48.731617      2.3577398     -152749.46     -152738.33    
      9500   4.6451234      21356.164      6724.9433      48.731617      2.3577398     -152748.95     -152737.95    
      9600   4.9781554      18538.73       6724.9433      48.731617      2.3577398     -152748.68     -152736.89    
      9700   5.3625071      13482.435      6724.9433      48.731617      2.3577398     -152748.39     -152735.7     
      9800   5.5989331      33501.114      6724.9433      48.731617      2.3577398     -152748.75     -152735.5     
      9900   4.9956756      12957.892      6724.9433      48.731617      2.3577398     -152749.26     -152737.44    
     10000   4.8124608      30936.99       6724.9433      48.731617      2.3577398     -152750.89     -152739.5     
     10100   4.6568365      15895.029      6724.9433      48.731617      2.3577398     -152751.69     -152740.67    
     10200   4.7461683      21744.696      6724.9433      48.731617      2.3577398     -152751.2      -152739.97    
     10300   5.1492036      24622.909      6724.9433      48.731617      2.3577398     -152750.51     -152738.32    
     10400   5.0445305      17520.047      6724.9433      48.731617      2.3577398     -152748.89     -152736.95    
     10500   5.105463       30762.209      6724.9433      48.731617      2.3577398     -152748.54     -152736.45    
     10600   5.0130208      16320.835      6724.9433      48.731617      2.3577398     -152748.27     -152736.41    
     10700   5.014302       25501.677      6724.9433      48.731617      2.3577398     -152747.84     -152735.97    
     10800   5.1882655      14786.345      6724.9433      48.731617      2.3577398     -152747.97     -152735.69    
     10900   5.4671092      25463.408      6724.9433      48.731617      2.3577398     -152749.19     -152736.25    
     11000   5.0356566      23149.786      6724.9433      48.731617      2.3577398     -152749.89     -152737.98    
     11100   4.8848547      18385.771      6724.9433      48.731617      2.3577398     -152751.61     -152740.05    
     11200   4.5585035      25172.697      6724.9433      48.731617      2.3577398     -152751.7      -152740.91    
     11300   4.6932345      16698.919      6724.9433      48.731617      2.3577398     -152751.27     -152740.16    
     11400   5.2239968      25258.408      6724.9433      48.731617      2.3577398     -152750.58     -152738.21    
     11500   5.1240334      20309.986      6724.9433      48.731617      2.3577398     -152748.68     -152736.55    
     11600   5.0828174      19964.462      6724.9433      48.731617      2.3577398     -152747.69     -152735.66    
     11700   4.9987938      21314.38       6724.9433      48.731617      2.3577398     -152747.18     -152735.35    
     11800   4.9661659      15957.022      6724.9433      48.731617      2.3577398     -152746.96     -152735.21    
     11900   5.1069775      20537.678      6724.9433      48.731617      2.3577398     -152748.24     -152736.15    
     12000   5.1528898      16658.103      6724.9433      48.731617      2.3577398     -152750.13     -152737.94    
     12100   4.5665751      26405.003      6724.9433      48.731617      2.3577398     -152750.77     -152739.96    
     12200   4.4633541      21317.741      6724.9433      48.731617      2.3577398     -152751.23     -152740.67    
     12300   4.7763595      22779.258      6724.9433      48.731617      2.3577398     -152750.98     -152739.68    
     12400   4.9043604      24077.831      6724.9433      48.731617      2.3577398     -152749.61     -152738       
     12500   5.3470466      20212.067      6724.9433      48.731617      2.3577398     -152749.27     -152736.62    
     12600   5.2315074      25743.518      6724.9433      48.731617      2.3577398     -152749.06     -152736.68    
     12700   4.8971047      16809.685      6724.9433      48.731617      2.3577398     -152748.93     -152737.34    
     12800   4.8131312      18876.8        6724.9433      48.731617      2.3577398     -152748.82     -152737.43    
     12900   5.1267068      21737.498      6724.9433      48.731617      2.3577398     -152748.85     -152736.71    
     13000   5.2858121      14466.672      6724.9433      48.731617      2.3577398     -152748.8      -152736.29    
     13100   5.2619535      29837.886      6724.9433      48.731617      2.3577398     -152749.52     -152737.07    
     13200   4.9418667      14558.026      6724.9433      48.731617      2.3577398     -152750.5      -152738.81    
     13300   4.8918455      22872.346      6724.9433      48.731617      2.3577398     -152751.39     -152739.82    
     13400   4.8402981      20670.894      6724.9433      48.731617      2.3577398     -152751.07     -152739.61    
     13500   4.9276839      20756.895      6724.9433      48.731617      2.3577398     -152749.78     -152738.12    
     13600   5.3319746      24672.548      6724.9433      48.731617      2.3577398     -152749.17     -152736.55    
     13700   5.4034813      20016.995      6724.9433      48.731617      2.3577398     -152749.12     -152736.33    
     13800   5.0827878      22348.994      6724.9433      48.731617      2.3577398     -152749.36     -152737.33    
     13900   4.755535       16261.215      6724.9433      48.731617      2.3577398     -152749.38     -152738.13    
     14000   4.731346       22180.029      6724.9433      48.731617      2.3577398     -152749.34     -152738.15    
     14100   5.258213       19939.123      6724.9433      48.731617      2.3577398     -152749.72     -152737.28    
     14200   5.2291543      19276.963      6724.9433      48.731617      2.3577398     -152749.12     -152736.75    
     14300   4.9712076      21821.541      6724.9433      48.731617      2.3577398     -152748.72     -152736.95    
     14400   4.9947793      13382.77       6724.9433      48.731617      2.3577398     -152749.73     -152737.91    
     14500   4.5341844      25219.672      6724.9433      48.731617      2.3577398     -152749.7      -152738.97    
     14600   4.6212929      16540.117      6724.9433      48.731617      2.3577398     -152750.22     -152739.28    
     14700   4.7338793      23818.49       6724.9433      48.731617      2.3577398     -152749.97     -152738.77    
     14800   4.9814006      22762.801      6724.9433      48.731617      2.3577398     -152749.77     -152737.98    
     14900   5.1036286      18084.347      6724.9433      48.731617      2.3577398     -152749.66     -152737.58    
     15000   4.9581754      25467.598      6724.9433      48.731617      2.3577398     -152749.3      -152737.57    
     15100   4.7518493      16282.267      6724.9433      48.731617      2.3577398     -152748.38     -152737.13    
     15200   5.0189262      24370.809      6724.9433      48.731617      2.3577398     -152747.96     -152736.09    
     15300   5.3066697      19655.921      6724.9433      48.731617      2.3577398     -152748.01     -152735.45    
     15400   5.170625       23378.333      6724.9433      48.731617      2.3577398     -152748.45     -152736.22    
     15500   5.1583523      19923.449      6724.9433      48.731617      2.3577398     -152750.15     -152737.95    
     15600   4.9281107      21961.813      6724.9433      48.731617      2.3577398     -152751.39     -152739.73    
     15700   4.6877491      25152.243      6724.9433      48.731617      2.3577398     -152751.49     -152740.39    
     15800   4.7390363      18011.64       6724.9433      48.731617      2.3577398     -152751        -152739.78    
     15900   4.9668748      23748.479      6724.9433      48.731617      2.3577398     -152750.09     -152738.34    
     16000   5.208093       18875.164      6724.9433      48.731617      2.3577398     -152749.2      -152736.87    
     16100   5.4896655      25879.335      6724.9433      48.731617      2.3577398     -152748.94     -152735.95    
     16200   5.2846819      24212.845      6724.9433      48.731617      2.3577398     -152748.17     -152735.67    
     16300   5.3986787      21499.522      6724.9433      48.731617      2.3577398     -152748.75     -152735.97    
     16400   5.0449614      20533.148      6724.9433      48.731617      2.3577398     -152748.38     -152736.44    
     16500   5.1654665      20638.795      6724.9433      48.731617      2.3577398     -152749.76     -152737.53    
     16600   5.0938726      16934.02       6724.9433      48.731617      2.3577398     -152750.51     -152738.45    
     16700   4.8147745      26397.53       6724.9433      48.731617      2.3577398     -152750.73     -152739.33    
     16800   4.9421864      16847.023      6724.9433      48.731617      2.3577398     -152751.7      -152740.01    
     16900   4.7105489      27259.084      6724.9433      48.731617      2.3577398     -152751.09     -152739.94    
     17000   4.7480589      16408.85       6724.9433      48.731617      2.3577398     -152750.46     -152739.23    
     17100   4.8628223      29940.573      6724.9433      48.731617      2.3577398     -152748.92     -152737.41    
     17200   5.046682       23895.957      6724.9433      48.731617      2.3577398     -152747.31     -152735.37    
     17300   5.1128806      24011.706      6724.9433      48.731617      2.3577398     -152746.38     -152734.27    
     17400   4.9806596      21494.412      6724.9433      48.731617      2.3577398     -152746.47     -152734.69    
     17500   4.7214228      18510.987      6724.9433      48.731617      2.3577398     -152747.9      -152736.72    
     17600   4.9206441      21741.841      6724.9433      48.731617      2.3577398     -152750.61     -152738.96    
     17700   4.5073838      24002.903      6724.9433      48.731617      2.3577398     -152750.89     -152740.22    
     17800   4.8476841      19348.065      6724.9433      48.731617      2.3577398     -152751.4      -152739.93    
     17900   5.0051163      23789.726      6724.9433      48.731617      2.3577398     -152750.4      -152738.56    
     18000   4.9565863      13690.846      6724.9433      48.731617      2.3577398     -152749.33     -152737.6     
     18100   5.1529444      23952.725      6724.9433      48.731617      2.3577398     -152750.07     -152737.87    
     18200   4.8998523      24065.851      6724.9433      48.731617      2.3577398     -152749.63     -152738.03    
     18300   4.6727379      22553.969      6724.9433      48.731617      2.3577398     -152748.8      -152737.74    
     18400   4.8663455      24756.948      6724.9433      48.731617      2.3577398     -152748.14     -152736.63    
     18500   5.329481       22543.815      6724.9433      48.731617      2.3577398     -152748.07     -152735.46    
     18600   5.2688802      21001.595      6724.9433      48.731617      2.3577398     -152748.02     -152735.55    
     18700   5.3075884      22827.28       6724.9433      48.731617      2.3577398     -152749.73     -152737.16    
     18800   4.8472378      19269.793      6724.9433      48.731617      2.3577398     -152750.55     -152739.08    
     18900   4.5768145      19445.968      6724.9433      48.731617      2.3577398     -152751.1      -152740.27    
     19000   4.9412295      21482.819      6724.9433      48.731617      2.3577398     -152751.29     -152739.6     
     19100   5.2214413      17021.526      6724.9433      48.731617      2.3577398     -152750.68     -152738.32    
     19200   5.1334873      25365.477      6724.9433      48.731617      2.3577398     -152749.54     -152737.39    
     19300   5.1570663      22256.389      6724.9433      48.731617      2.3577398     -152749.49     -152737.29    
     19400   4.9153536      20772.312      6724.9433      48.731617      2.3577398     -152749.03     -152737.4     
     19500   4.8090899      19669.335      6724.9433      48.731617      2.3577398     -152748.55     -152737.17    
     19600   5.1294637      18625.499      6724.9433      48.731617      2.3577398     -152748.94     -152736.8     
     19700   4.9237046      14573.486      6724.9433      48.731617      2.3577398     -152748.26     -152736.61    
     19800   5.1076392      22037.917      6724.9433      48.731617      2.3577398     -152748.98     -152736.89    
     19900   4.8567829      16389.927      6724.9433      48.731617      2.3577398     -152749.27     -152737.77    
     20000   4.8335962      22527.944      6724.9433      48.731617      2.3577398     -152749.92     -152738.48    
     20100   4.9988972      23014.114      6724.9433      48.731617      2.3577398     -152750.7      -152738.86    
     20200   4.9961256      16636.335      6724.9433      48.731617      2.3577398     -152751.11     -152739.28    
     20300   5.0460347      23839.814      6724.9433      48.731617      2.3577398     -152751.41     -152739.47    
     20400   4.7231105      17139.229      6724.9433      48.731617      2.3577398     -152750.19     -152739.02    
     20500   4.8979902      22905.292      6724.9433      48.731617      2.3577398     -152749.49     -152737.89    
     20600   5.1975574      24555.565      6724.9433      48.731617      2.3577398     -152748.44     -152736.14    
     20700   5.0989432      16207.28       6724.9433      48.731617      2.3577398     -152747.3      -152735.23    
     20800   5.2517148      23419.213      6724.9433      48.731617      2.3577398     -152748.31     -152735.88    
     20900   4.9431847      19140.803      6724.9433      48.731617      2.3577398     -152748.68     -152736.98    
     21000   4.6512063      16254.141      6724.9433      48.731617      2.3577398     -152748.92     -152737.92    
     21100   4.8572164      22347.515      6724.9433      48.731617      2.3577398     -152749.78     -152738.28    
     21200   4.8707693      16120.534      6724.9433      48.731617      2.3577398     -152750.12     -152738.6     
     21300   5.0122478      19763.79       6724.9433      48.731617      2.3577398     -152751.1      -152739.24    
     21400   4.9894184      19928.03       6724.9433      48.731617      2.3577398     -152751.68     -152739.87    
     21500   4.664402       24225.265      6724.9433      48.731617      2.3577398     -152750.71     -152739.67    
     21600   4.7814554      24639.656      6724.9433      48.731617      2.3577398     -152749.53     -152738.21    
     21700   5.0060945      17947.243      6724.9433      48.731617      2.3577398     -152747.8      -152735.95    
     21800   5.0514696      22773.092      6724.9433      48.731617      2.3577398     -152746.27     -152734.31    
     21900   5.3128597      18285.956      6724.9433      48.731617      2.3577398     -152747.33     -152734.75    
     22000   5.0136022      21485.377      6724.9433      48.731617      2.3577398     -152748.85     -152736.98    
     22100   4.6626726      26012.801      6724.9433      48.731617      2.3577398     -152750.19     -152739.15    
     22200   4.4552849      18993.641      6724.9433      48.731617      2.3577398     -152750.5      -152739.96    
     22300   4.9117415      22995.083      6724.9433      48.731617      2.3577398     -152750.85     -152739.23    
     22400   5.2640874      17131.841      6724.9433      48.731617      2.3577398     -152750.39     -152737.93    
     22500   5.348842       20636.404      6724.9433      48.731617      2.3577398     -152750.02     -152737.36    
     22600   4.9330818      19094.97       6724.9433      48.731617      2.3577398     -152749.97     -152738.3     
     22700   4.8133731      24965.405      6724.9433      48.731617      2.3577398     -152750.55     -152739.16    
     22800   4.8234755      17370.27       6724.9433      48.731617      2.3577398     -152750.11     -152738.69    
     22900   4.9289332      22803.332      6724.9433      48.731617      2.3577398     -152748.44     -152736.78    
     23000   5.4772696      19922.253      6724.9433      48.731617      2.3577398     -152747.98     -152735.02    
     23100   5.5758917      21293.409      6724.9433      48.731617      2.3577398     -152748.25     -152735.05    
     23200   4.9349406      28312.831      6724.9433      48.731617      2.3577398     -152748.98     -152737.3     
     23300   4.5613606      15692.978      6724.9433      48.731617      2.3577398     -152750.23     -152739.43    
     23400   4.7180548      28546.008      6724.9433      48.731617      2.3577398     -152751.27     -152740.11    
     23500   4.7931553      22246.819      6724.9433      48.731617      2.3577398     -152750.56     -152739.21    
     23600   5.2666359      19958.224      6724.9433      48.731617      2.3577398     -152750.28     -152737.81    
     23700   5.3691528      23563.814      6724.9433      48.731617      2.3577398     -152749.98     -152737.27    
     23800   5.2136896      13434.829      6724.9433      48.731617      2.3577398     -152749.75     -152737.41    
     23900   4.8510659      26676.86       6724.9433      48.731617      2.3577398     -152749.38     -152737.89    
     24000   4.768641       20369.159      6724.9433      48.731617      2.3577398     -152749.17     -152737.88    
     24100   4.9851884      19968.26       6724.9433      48.731617      2.3577398     -152749.11     -152737.31    
     24200   5.0743457      24661.123      6724.9433      48.731617      2.3577398     -152748.6      -152736.59    
     24300   4.9595896      16822.675      6724.9433      48.731617      2.3577398     -152748.06     -152736.32    
     24400   5.044697       25870.333      6724.9433      48.731617      2.3577398     -152748.92     -152736.98    
     24500   5.1989947      15791.347      6724.9433      48.731617      2.3577398     -152750.32     -152738.01    
     24600   4.8441242      19845.391      6724.9433      48.731617      2.3577398     -152750.7      -152739.24    
     24700   4.6818993      24781.599      6724.9433      48.731617      2.3577398     -152750.83     -152739.75    
     24800   4.7919527      17131.2        6724.9433      48.731617      2.3577398     -152750.54     -152739.2     
     24900   4.8300026      25867.073      6724.9433      48.731617      2.3577398     -152749.41     -152737.98    
     25000   5.1377576      14959.158      6724.9433      48.731617      2.3577398     -152749.16     -152737       
     25100   5.229212       29002.328      6724.9433      48.731617      2.3577398     -152748.92     -152736.55    
     25200   4.9143929      17384.585      6724.9433      48.731617      2.3577398     -152748.5      -152736.87    
     25300   5.1383729      22771.271      6724.9433      48.731617      2.3577398     -152749.44     -152737.28    
     25400   4.9965678      18464.173      6724.9433      48.731617      2.3577398     -152749.02     -152737.19    
     25500   5.0100509      21949.559      6724.9433      48.731617      2.3577398     -152749.08     -152737.22    
     25600   4.8628303      18734.262      6724.9433      48.731617      2.3577398     -152748.94     -152737.43    
     25700   4.7645845      21709.837      6724.9433      48.731617      2.3577398     -152749.71     -152738.43    
     25800   4.7103442      24776.772      6724.9433      48.731617      2.3577398     -152750.64     -152739.49    
     25900   4.8920401      15416.803      6724.9433      48.731617      2.3577398     -152751.27     -152739.69    
     26000   4.8979369      22136.577      6724.9433      48.731617      2.3577398     -152750.42     -152738.83    
     26100   5.1505113      15132.383      6724.9433      48.731617      2.3577398     -152749.47     -152737.28    
     26200   5.4134049      14113.811      6724.9433      48.731617      2.3577398     -152748.73     -152735.92    
     26300   5.1232843      29803.378      6724.9433      48.731617      2.3577398     -152747.76     -152735.64    
     26400   4.9518087      12825.944      6724.9433      48.731617      2.3577398     -152748.02     -152736.3     
     26500   4.9117541      32751.629      6724.9433      48.731617      2.3577398     -152749.05     -152737.43    
     26600   4.8625032      15920.122      6724.9433      48.731617      2.3577398     -152749.51     -152738       
     26700   5.1248112      16601.217      6724.9433      48.731617      2.3577398     -152750.28     -152738.15    
     26800   5.4034017      26168.275      6724.9433      48.731617      2.3577398     -152750.97     -152738.18    
     26900   5.019779       10503.326      6724.9433      48.731617      2.3577398     -152750.63     -152738.75    
     27000   4.8052039      30471.414      6724.9433      48.731617      2.3577398     -152750.63     -152739.26    
     27100   4.7590296      13464.999      6724.9433      48.731617      2.3577398     -152750.47     -152739.2     
     27200   4.9297047      23439.858      6724.9433      48.731617      2.3577398     -152749.66     -152738       
     27300   5.0297285      21350.543      6724.9433      48.731617      2.3577398     -152748.09     -152736.19    
     27400   5.3350803      19293.72       6724.9433      48.731617      2.3577398     -152747.95     -152735.33    
     27500   4.9280506      26488.723      6724.9433      48.731617      2.3577398     -152748.1      -152736.44    
     27600   5.1787818      18721.536      6724.9433      48.731617      2.3577398     -152750.19     -152737.93    
     27700   5.0370898      25444.23       6724.9433      48.731617      2.3577398     -152750.76     -152738.83    
     27800   4.8842158      15496.986      6724.9433      48.731617      2.3577398     -152749.97     -152738.41    
     27900   4.9739387      22404.44       6724.9433      48.731617      2.3577398     -152749.24     -152737.47    
     28000   5.1550578      22479.824      6724.9433      48.731617      2.3577398     -152749.74     -152737.54    
     28100   4.8792262      17967.416      6724.9433      48.731617      2.3577398     -152750.1      -152738.55    
     28200   4.6512331      26567.123      6724.9433      48.731617      2.3577398     -152750.29     -152739.29    
     28300   4.6882574      16337.222      6724.9433      48.731617      2.3577398     -152749.91     -152738.81    
     28400   5.1139739      26189.205      6724.9433      48.731617      2.3577398     -152749.33     -152737.22    
     28500   5.4182872      17281.332      6724.9433      48.731617      2.3577398     -152748.6      -152735.78    
     28600   5.21706        19736.097      6724.9433      48.731617      2.3577398     -152748.08     -152735.73    
     28700   4.9513214      29908.25       6724.9433      48.731617      2.3577398     -152748.86     -152737.14    
     28800   4.8471421      17231.413      6724.9433      48.731617      2.3577398     -152749.86     -152738.39    
     28900   4.5027494      30680.132      6724.9433      48.731617      2.3577398     -152749.2      -152738.54    
     29000   5.1707743      12709.322      6724.9433      48.731617      2.3577398     -152750.02     -152737.78    
     29100   5.2861925      27298.898      6724.9433      48.731617      2.3577398     -152749.73     -152737.22    
     29200   4.9296269      16661.848      6724.9433      48.731617      2.3577398     -152749.71     -152738.05    
     29300   4.8415381      18733.775      6724.9433      48.731617      2.3577398     -152750.69     -152739.23    
     29400   4.598609       23616.126      6724.9433      48.731617      2.3577398     -152750.79     -152739.91    
     29500   4.7629978      17271.661      6724.9433      48.731617      2.3577398     -152750.2      -152738.93    
     29600   5.01272        25900.557      6724.9433      48.731617      2.3577398     -152749.07     -152737.21    
     29700   5.3204435      19124.5        6724.9433      48.731617      2.3577398     -152748.06     -152735.46    
     29800   5.2285202      20886.713      6724.9433      48.731617      2.3577398     -152747.74     -152735.36    
     29900   5.234642       25627.519      6724.9433      48.731617      2.3577398     -152748.62     -152736.23    
     30000   5.0418745      13710.547      6724.9433      48.731617      2.3577398     -152749.52     -152737.59    
     30100   4.7253982      29920.305      6724.9433      48.731617      2.3577398     -152749.75     -152738.56    
     30200   4.8231137      11126.504      6724.9433      48.731617      2.3577398     -152750.48     -152739.07    
     30300   4.944842       28828.476      6724.9433      48.731617      2.3577398     -152750.87     -152739.17    
     30400   4.9731398      19946.671      6724.9433      48.731617      2.3577398     -152750.81     -152739.04    
     30500   5.1484833      21797.77       6724.9433      48.731617      2.3577398     -152750.93     -152738.74    
     30600   5.1701346      23340.24       6724.9433      48.731617      2.3577398     -152750.24     -152738       
     30700   5.2088366      14561.422      6724.9433      48.731617      2.3577398     -152749.56     -152737.23    
     30800   5.1032749      29709.651      6724.9433      48.731617      2.3577398     -152748.55     -152736.47    
     30900   5.2488109      11235.42       6724.9433      48.731617      2.3577398     -152748.57     -152736.15    
     31000   5.1482846      28875.986      6724.9433      48.731617      2.3577398     -152748.29     -152736.1     
     31100   4.8823433      15967.443      6724.9433      48.731617      2.3577398     -152748.28     -152736.72    
     31200   4.9734513      22769.147      6724.9433      48.731617      2.3577398     -152749.52     -152737.75    
     31300   4.983957       27504.291      6724.9433      48.731617      2.3577398     -152751.03     -152739.24    
     31400   4.8477173      15306.327      6724.9433      48.731617      2.3577398     -152751.54     -152740.07    
     31500   4.7669317      30825.713      6724.9433      48.731617      2.3577398     -152751.4      -152740.11    
     31600   4.8909717      10907.997      6724.9433      48.731617      2.3577398     -152750.67     -152739.09    
     31700   5.0635862      25884.442      6724.9433      48.731617      2.3577398     -152749.53     -152737.55    
     31800   5.1218581      16881.116      6724.9433      48.731617      2.3577398     -152748.32     -152736.2     
     31900   5.1291994      20861.108      6724.9433      48.731617      2.3577398     -152747.62     -152735.48    
     32000   5.3331623      23868.932      6724.9433      48.731617      2.3577398     -152748.4      -152735.78    
     32100   5.0798077      15284.273      6724.9433      48.731617      2.3577398     -152749.13     -152737.11    
     32200   4.621545       20995.975      6724.9433      48.731617      2.3577398     -152749.24     -152738.3     
     32300   4.8840797      15590.519      6724.9433      48.731617      2.3577398     -152750.41     -152738.85    
     32400   4.9502008      19704.446      6724.9433      48.731617      2.3577398     -152750.45     -152738.74    
     32500   4.9069969      23581.453      6724.9433      48.731617      2.3577398     -152750.06     -152738.45    
     32600   4.9712131      16635.073      6724.9433      48.731617      2.3577398     -152750.32     -152738.56    
     32700   4.8188143      31096.181      6724.9433      48.731617      2.3577398     -152750.06     -152738.65    
     32800   4.825109       19722.061      6724.9433      48.731617      2.3577398     -152749.71     -152738.29    
     32900   4.8099689      24645.756      6724.9433      48.731617      2.3577398     -152749.03     -152737.65    
     33000   5.3490454      22564.315      6724.9433      48.731617      2.3577398     -152749.25     -152736.59    
     33100   5.2578269      9206.4588      6724.9433      48.731617      2.3577398     -152748.7      -152736.26    
     33200   5.2275847      22977.303      6724.9433      48.731617      2.3577398     -152749.11     -152736.74    
     33300   4.7619931      15030.51       6724.9433      48.731617      2.3577398     -152749.12     -152737.85    
     33400   4.7614083      26080.48       6724.9433      48.731617      2.3577398     -152749.85     -152738.58    
     33500   4.8124521      21461.173      6724.9433      48.731617      2.3577398     -152750.13     -152738.74    
     33600   4.9002001      13288.604      6724.9433      48.731617      2.3577398     -152750        -152738.4     
     33700   5.1555948      21135.782      6724.9433      48.731617      2.3577398     -152750.26     -152738.06    
     33800   5.0474466      16026.671      6724.9433      48.731617      2.3577398     -152750.18     -152738.24    
     33900   4.8948005      26683.508      6724.9433      48.731617      2.3577398     -152750.18     -152738.59    
     34000   4.8482489      20780.107      6724.9433      48.731617      2.3577398     -152749.6      -152738.13    
     34100   5.0326953      24497.446      6724.9433      48.731617      2.3577398     -152749.33     -152737.42    
     34200   4.9848901      17437.118      6724.9433      48.731617      2.3577398     -152748.38     -152736.59    
     34300   5.1934569      18238.871      6724.9433      48.731617      2.3577398     -152748.56     -152736.26    
     34400   5.0535536      25042.618      6724.9433      48.731617      2.3577398     -152748.86     -152736.9     
     34500   4.8815078      10043.911      6724.9433      48.731617      2.3577398     -152749.27     -152737.72    
     34600   4.85376        31575.931      6724.9433      48.731617      2.3577398     -152750.04     -152738.55    
     34700   5.1274068      12679.894      6724.9433      48.731617      2.3577398     -152750.76     -152738.62    
     34800   4.9646485      22751.398      6724.9433      48.731617      2.3577398     -152750.24     -152738.49    
     34900   5.0299214      23392.527      6724.9433      48.731617      2.3577398     -152750.41     -152738.51    
     35000   4.7609453      15159.813      6724.9433      48.731617      2.3577398     -152749.91     -152738.64    
     35100   4.5813711      27417.773      6724.9433      48.731617      2.3577398     -152749.32     -152738.47    
     35200   5.0452934      15375.823      6724.9433      48.731617      2.3577398     -152749.76     -152737.82    
     35300   5.0578144      22055.271      6724.9433      48.731617      2.3577398     -152748.84     -152736.87    
     35400   5.3537846      18735.577      6724.9433      48.731617      2.3577398     -152748.52     -152735.85    
     35500   5.220847       24100.355      6724.9433      48.731617      2.3577398     -152748.11     -152735.75    
     35600   5.1491448      19268.979      6724.9433      48.731617      2.3577398     -152748.82     -152736.63    
     35700   4.9995831      20024.939      6724.9433      48.731617      2.3577398     -152749.82     -152737.99    
     35800   5.019815       27479.647      6724.9433      48.731617      2.3577398     -152751.14     -152739.26    
     35900   4.8223704      14824.313      6724.9433      48.731617      2.3577398     -152751.31     -152739.9     
     36000   4.8777563      25139.257      6724.9433      48.731617      2.3577398     -152751.17     -152739.62    
     36100   5.0750722      16111.686      6724.9433      48.731617      2.3577398     -152750.71     -152738.7     
     36200   4.8917237      20918.834      6724.9433      48.731617      2.3577398     -152749.02     -152737.44    
     36300   5.1735398      25050.845      6724.9433      48.731617      2.3577398     -152748.73     -152736.48    
     36400   4.9081964      17209.588      6724.9433      48.731617      2.3577398     -152747.82     -152736.2     
     36500   4.7578503      31117.936      6724.9433      48.731617      2.3577398     -152747.43     -152736.17    
     36600   5.0220817      21428.75       6724.9433      48.731617      2.3577398     -152748.21     -152736.33    
     36700   5.1357436      21098.228      6724.9433      48.731617      2.3577398     -152749.1      -152736.95    
     36800   4.9740702      18840.541      6724.9433      48.731617      2.3577398     -152749.93     -152738.16    
     36900   4.8979533      17792.387      6724.9433      48.731617      2.3577398     -152751.09     -152739.5     
     37000   4.7455785      23964.429      6724.9433      48.731617      2.3577398     -152751.22     -152739.99    
     37100   4.7050167      20327.575      6724.9433      48.731617      2.3577398     -152750.65     -152739.51    
     37200   4.9245729      31186.381      6724.9433      48.731617      2.3577398     -152749.98     -152738.32    
     37300   5.0680619      13839.069      6724.9433      48.731617      2.3577398     -152748.73     -152736.74    
     37400   5.0718932      27022.506      6724.9433      48.731617      2.3577398     -152747.98     -152735.97    
     37500   5.0868349      16454.748      6724.9433      48.731617      2.3577398     -152748.28     -152736.24    
     37600   5.1722407      22889.419      6724.9433      48.731617      2.3577398     -152749.33     -152737.09    
     37700   5.0343914      26572.263      6724.9433      48.731617      2.3577398     -152749.6      -152737.68    
     37800   4.8272108      18923.77       6724.9433      48.731617      2.3577398     -152749.55     -152738.12    
     37900   4.726371       20679.884      6724.9433      48.731617      2.3577398     -152749.53     -152738.34    
     38000   4.7621675      19617.47       6724.9433      48.731617      2.3577398     -152749.67     -152738.4     
     38100   4.9481295      19182.886      6724.9433      48.731617      2.3577398     -152750.25     -152738.54    
     38200   5.0615445      25976.827      6724.9433      48.731617      2.3577398     -152750.58     -152738.6     
     38300   4.9613832      22072.026      6724.9433      48.731617      2.3577398     -152750.19     -152738.45    
     38400   5.2275415      25808.019      6724.9433      48.731617      2.3577398     -152750.46     -152738.09    
     38500   5.0983371      18501.803      6724.9433      48.731617      2.3577398     -152749.19     -152737.12    
     38600   5.2007661      21909.211      6724.9433      48.731617      2.3577398     -152748.73     -152736.42    
     38700   5.0149059      18624.334      6724.9433      48.731617      2.3577398     -152748.33     -152736.47    
     38800   5.1863276      23452.439      6724.9433      48.731617      2.3577398     -152749.57     -152737.29    
     38900   5.0459832      23335.664      6724.9433      48.731617      2.3577398     -152750.36     -152738.42    
     39000   5.0091707      15847.266      6724.9433      48.731617      2.3577398     -152750.6      -152738.75    
     39100   5.1105277      26486.379      6724.9433      48.731617      2.3577398     -152750.51     -152738.42    
     39200   5.3043088      15880.319      6724.9433      48.731617      2.3577398     -152750.12     -152737.57    
     39300   5.3881928      22931.755      6724.9433      48.731617      2.3577398     -152750.1      -152737.35    
     39400   5.0880638      24554.401      6724.9433      48.731617      2.3577398     -152750.06     -152738.02    
     39500   4.7120377      20498.242      6724.9433      48.731617      2.3577398     -152750.1      -152738.95    
     39600   4.6032642      19387.936      6724.9433      48.731617      2.3577398     -152750.1      -152739.2     
     39700   4.9135198      22050.196      6724.9433      48.731617      2.3577398     -152749.85     -152738.22    
     39800   5.1895222      16147.756      6724.9433      48.731617      2.3577398     -152748.99     -152736.71    
     39900   5.5431159      21540.914      6724.9433      48.731617      2.3577398     -152748.76     -152735.64    
     40000   5.1273598      21586.575      6724.9433      48.731617      2.3577398     -152748.41     -152736.28    
     40100   5.0240791      20293.64       6724.9433      48.731617      2.3577398     -152749.86     -152737.97    
     40200   4.6642551      24367.59       6724.9433      48.731617      2.3577398     -152750        -152738.96    
     40300   4.684057       20709.603      6724.9433      48.731617      2.3577398     -152750.06     -152738.98    
     40400   5.001982       24126.083      6724.9433      48.731617      2.3577398     -152750.16     -152738.32    
     40500   5.3242969      15164.562      6724.9433      48.731617      2.3577398     -152750.26     -152737.66    
     40600   5.2157394      20618.377      6724.9433      48.731617      2.3577398     -152750.63     -152738.29    
     40700   4.8495217      15757.243      6724.9433      48.731617      2.3577398     -152750.63     -152739.16    
     40800   4.6670054      23899.566      6724.9433      48.731617      2.3577398     -152750.07     -152739.02    
     40900   4.7038311      22751.39       6724.9433      48.731617      2.3577398     -152749.23     -152738.1     
     41000   5.0117034      16471.475      6724.9433      48.731617      2.3577398     -152748.11     -152736.25    
     41100   5.2272341      27569.378      6724.9433      48.731617      2.3577398     -152747.51     -152735.14    
     41200   5.2507382      8858.5217      6724.9433      48.731617      2.3577398     -152748.27     -152735.84    
     41300   5.099236       22684.982      6724.9433      48.731617      2.3577398     -152749.9      -152737.83    
     41400   4.714732       14469.313      6724.9433      48.731617      2.3577398     -152750.85     -152739.7     
     41500   4.82462        22841.508      6724.9433      48.731617      2.3577398     -152751.39     -152739.97    
     41600   4.9266667      25481.761      6724.9433      48.731617      2.3577398     -152750.75     -152739.09    
     41700   5.0721813      18573.902      6724.9433      48.731617      2.3577398     -152750.12     -152738.12    
     41800   5.1796312      25791.532      6724.9433      48.731617      2.3577398     -152749.82     -152737.56    
     41900   5.1093498      16788.61       6724.9433      48.731617      2.3577398     -152749.85     -152737.75    
     42000   4.8580059      19689.12       6724.9433      48.731617      2.3577398     -152749.41     -152737.91    
     42100   4.8192225      17362.812      6724.9433      48.731617      2.3577398     -152748.95     -152737.55    
     42200   4.996008       24946.143      6724.9433      48.731617      2.3577398     -152748.62     -152736.79    
     42300   5.2298349      18585.915      6724.9433      48.731617      2.3577398     -152748.92     -152736.54    
     42400   5.1349008      23916.885      6724.9433      48.731617      2.3577398     -152749.32     -152737.17    
     42500   4.9296918      20617.637      6724.9433      48.731617      2.3577398     -152750.19     -152738.52    
     42600   4.6529858      14844.365      6724.9433      48.731617      2.3577398     -152750.67     -152739.66    
     42700   4.6882929      26194.682      6724.9433      48.731617      2.3577398     -152750.71     -152739.62    
     42800   5.1000491      14649.496      6724.9433      48.731617      2.3577398     -152750.49     -152738.42    
     42900   5.326177       26672.647      6724.9433      48.731617      2.3577398     -152749.83     -152737.22    
     43000   5.3768717      22011.034      6724.9433      48.731617      2.3577398     -152749.43     -152736.71    
     43100   5.1039025      18958.364      6724.9433      48.731617      2.3577398     -152749.61     -152737.53    
     43200   4.7925625      25573.396      6724.9433      48.731617      2.3577398     -152750.02     -152738.68    
     43300   4.5561905      20416.115      6724.9433      48.731617      2.3577398     -152749.74     -152738.96    
     43400   4.8758543      28698.248      6724.9433      48.731617      2.3577398     -152749.62     -152738.08    
     43500   5.2097204      15734.31       6724.9433      48.731617      2.3577398     -152749.43     -152737.1     
     43600   5.3201951      26852.72       6724.9433      48.731617      2.3577398     -152749.5      -152736.9     
     43700   5.1739541      17335.813      6724.9433      48.731617      2.3577398     -152750.09     -152737.84    
     43800   4.8870869      25559.471      6724.9433      48.731617      2.3577398     -152750.46     -152738.89    
     43900   4.8760942      23070.311      6724.9433      48.731617      2.3577398     -152750.79     -152739.25    
     44000   4.8598645      16110.413      6724.9433      48.731617      2.3577398     -152750.15     -152738.65    
     44100   5.1294248      26621.797      6724.9433      48.731617      2.3577398     -152750.2      -152738.06    
     44200   5.0470434      9523.8244      6724.9433      48.731617      2.3577398     -152749.68     -152737.74    
     44300   5.0745308      26918.765      6724.9433      48.731617      2.3577398     -152749.75     -152737.74    
     44400   4.6598004      19569.271      6724.9433      48.731617      2.3577398     -152748.95     -152737.92    
     44500   4.9830113      29996.152      6724.9433      48.731617      2.3577398     -152749.65     -152737.86    
     44600   4.9753103      22081.387      6724.9433      48.731617      2.3577398     -152749.46     -152737.69    
     44700   5.0829262      23294.802      6724.9433      48.731617      2.3577398     -152749.53     -152737.5     
     44800   5.1309508      22587.119      6724.9433      48.731617      2.3577398     -152749.78     -152737.64    
     44900   5.1166059      21023.424      6724.9433      48.731617      2.3577398     -152750.28     -152738.17    
     45000   4.9746664      24401.144      6724.9433      48.731617      2.3577398     -152750.61     -152738.84    
     45100   4.7169844      16004.104      6724.9433      48.731617      2.3577398     -152750.1      -152738.94    
     45200   4.7771512      22711.603      6724.9433      48.731617      2.3577398     -152749.95     -152738.64    
     45300   5.1344245      20531.331      6724.9433      48.731617      2.3577398     -152750.15     -152738       
     45400   5.2428779      22414.816      6724.9433      48.731617      2.3577398     -152749.89     -152737.48    
     45500   5.2105053      22705.552      6724.9433      48.731617      2.3577398     -152749.88     -152737.54    
     45600   5.1017718      21308.781      6724.9433      48.731617      2.3577398     -152749.86     -152737.79    
     45700   4.8159946      19674.552      6724.9433      48.731617      2.3577398     -152749.37     -152737.97    
     45800   4.8946251      22147.72       6724.9433      48.731617      2.3577398     -152749.43     -152737.85    
     45900   5.0233056      19992.051      6724.9433      48.731617      2.3577398     -152749.7      -152737.81    
     46000   5.0482125      21323.574      6724.9433      48.731617      2.3577398     -152750.01     -152738.06    
     46100   4.7964604      33822.952      6724.9433      48.731617      2.3577398     -152750.13     -152738.78    
     46200   4.867978       17068.498      6724.9433      48.731617      2.3577398     -152750.75     -152739.22    
     46300   4.9670245      24397.573      6724.9433      48.731617      2.3577398     -152750.8      -152739.05    
     46400   4.9528789      16687.922      6724.9433      48.731617      2.3577398     -152749.98     -152738.26    
     46500   5.1455363      18291.412      6724.9433      48.731617      2.3577398     -152749.33     -152737.15    
     46600   5.1928727      21930.524      6724.9433      48.731617      2.3577398     -152748.78     -152736.49    
     46700   5.2579304      17081.827      6724.9433      48.731617      2.3577398     -152749.33     -152736.89    
     46800   4.880476       21385.338      6724.9433      48.731617      2.3577398     -152749.31     -152737.76    
     46900   5.0238708      15647.013      6724.9433      48.731617      2.3577398     -152750.42     -152738.53    
     47000   4.9480126      27819.028      6724.9433      48.731617      2.3577398     -152750.08     -152738.37    
     47100   5.0740425      16778.479      6724.9433      48.731617      2.3577398     -152749.95     -152737.94    
     47200   5.0114516      22221.576      6724.9433      48.731617      2.3577398     -152749.57     -152737.7     
     47300   4.9696447      26408.658      6724.9433      48.731617      2.3577398     -152749.67     -152737.91    
     47400   4.7846509      17887.758      6724.9433      48.731617      2.3577398     -152749.73     -152738.4     
     47500   4.7677453      31395.035      6724.9433      48.731617      2.3577398     -152749.92     -152738.64    
     47600   4.9199866      15167.168      6724.9433      48.731617      2.3577398     -152749.82     -152738.18    
     47700   5.1956267      21877.172      6724.9433      48.731617      2.3577398     -152749.53     -152737.23    
     47800   5.141503       13653.609      6724.9433      48.731617      2.3577398     -152748.81     -152736.64    
     47900   4.7654073      20249.874      6724.9433      48.731617      2.3577398     -152748.17     -152736.89    
     48000   4.8529689      15316.763      6724.9433      48.731617      2.3577398     -152749.32     -152737.83    
     48100   4.7420576      27608.207      6724.9433      48.731617      2.3577398     -152749.75     -152738.53    
     48200   5.1761255      13813.465      6724.9433      48.731617      2.3577398     -152750.9      -152738.65    
     48300   5.1044526      23251.891      6724.9433      48.731617      2.3577398     -152750.3      -152738.22    
     48400   5.2318479      19083.341      6724.9433      48.731617      2.3577398     -152750.23     -152737.85    
     48500   5.1248922      15189.328      6724.9433      48.731617      2.3577398     -152749.58     -152737.45    
     48600   5.1425559      23933.988      6724.9433      48.731617      2.3577398     -152749.84     -152737.66    
     48700   4.8897407      17099.925      6724.9433      48.731617      2.3577398     -152749.4      -152737.83    
     48800   4.9369801      22282.098      6724.9433      48.731617      2.3577398     -152749.74     -152738.05    
     48900   4.8953405      18139.318      6724.9433      48.731617      2.3577398     -152749.27     -152737.69    
     49000   5.1983447      22888.024      6724.9433      48.731617      2.3577398     -152749.46     -152737.15    
     49100   4.9075879      19657.844      6724.9433      48.731617      2.3577398     -152748.63     -152737.02    
     49200   5.049593       21897.094      6724.9433      48.731617      2.3577398     -152749.08     -152737.13    
     49300   4.7341797      24289.945      6724.9433      48.731617      2.3577398     -152749.03     -152737.82    
     49400   4.7375769      15414.103      6724.9433      48.731617      2.3577398     -152749.66     -152738.45    
     49500   4.9435816      23412.933      6724.9433      48.731617      2.3577398     -152750.49     -152738.79    
     49600   5.0676818      14405.159      6724.9433      48.731617      2.3577398     -152750.52     -152738.52    
     49700   4.9251647      19525.949      6724.9433      48.731617      2.3577398     -152749.47     -152737.81    
     49800   5.0024496      22857.05       6724.9433      48.731617      2.3577398     -152749.17     -152737.33    
     49900   5.1892965      19842.839      6724.9433      48.731617      2.3577398     -152749.25     -152736.97    
     50000   5.2080334      23389.808      6724.9433      48.731617      2.3577398     -152749.46     -152737.14    
     50100   5.0316785      15673.394      6724.9433      48.731617      2.3577398     -152749.55     -152737.64    
     50200   5.1754136      21073.934      6724.9433      48.731617      2.3577398     -152750.33     -152738.08    
     50300   4.974718       19270.119      6724.9433      48.731617      2.3577398     -152749.85     -152738.07    
     50400   5.0181422      24985.93       6724.9433      48.731617      2.3577398     -152750        -152738.12    
     50500   5.2189851      20593.911      6724.9433      48.731617      2.3577398     -152750.16     -152737.81    
     50600   5.0984514      21866.261      6724.9433      48.731617      2.3577398     -152750.21     -152738.15    
     50700   5.0224828      27775.707      6724.9433      48.731617      2.3577398     -152750.46     -152738.57    
     50800   4.7658979      15634.854      6724.9433      48.731617      2.3577398     -152749.73     -152738.45    
     50900   4.9440107      26107.206      6724.9433      48.731617      2.3577398     -152749.5      -152737.8     
     51000   5.2554431      15787.727      6724.9433      48.731617      2.3577398     -152749.19     -152736.75    
     51100   5.4421565      17173.219      6724.9433      48.731617      2.3577398     -152749.26     -152736.38    
     51200   5.1931325      20341.07       6724.9433      48.731617      2.3577398     -152749.23     -152736.94    
     51300   4.8396149      18891.747      6724.9433      48.731617      2.3577398     -152749.42     -152737.96    
     51400   4.6432649      23037.191      6724.9433      48.731617      2.3577398     -152749.71     -152738.72    
     51500   4.7404428      22637.018      6724.9433      48.731617      2.3577398     -152749.94     -152738.72    
     51600   5.1347911      20772.102      6724.9433      48.731617      2.3577398     -152750.35     -152738.2     
     51700   5.3893575      22410.91       6724.9433      48.731617      2.3577398     -152750.47     -152737.72    
     51800   5.163789       22927.42       6724.9433      48.731617      2.3577398     -152750.12     -152737.9     
     51900   4.9535688      22206.916      6724.9433      48.731617      2.3577398     -152749.9      -152738.18    
     52000   4.7032942      23963.606      6724.9433      48.731617      2.3577398     -152749.51     -152738.38    
     52100   4.8591124      22971.932      6724.9433      48.731617      2.3577398     -152749.53     -152738.03    
     52200   5.1775641      17682.721      6724.9433      48.731617      2.3577398     -152749.48     -152737.22    
     52300   5.0530514      21777.023      6724.9433      48.731617      2.3577398     -152749.21     -152737.25    
     52400   5.0685968      20038.383      6724.9433      48.731617      2.3577398     -152749.71     -152737.72    
     52500   4.8362094      20075.06       6724.9433      48.731617      2.3577398     -152749.92     -152738.47    
     52600   4.9056891      22876.916      6724.9433      48.731617      2.3577398     -152750.3      -152738.69    
     52700   4.9281714      17722.669      6724.9433      48.731617      2.3577398     -152749.88     -152738.22    
     52800   5.178609       19275.118      6724.9433      48.731617      2.3577398     -152749.82     -152737.57    
     52900   5.0779758      23316.27       6724.9433      48.731617      2.3577398     -152749.43     -152737.41    
     53000   5.0811661      20504.524      6724.9433      48.731617      2.3577398     -152749.88     -152737.85    
     53100   4.9651192      22839.191      6724.9433      48.731617      2.3577398     -152750.4      -152738.65    
     53200   4.7350158      20779.877      6724.9433      48.731617      2.3577398     -152749.89     -152738.69    
     53300   4.9001161      20922.886      6724.9433      48.731617      2.3577398     -152749.9      -152738.3     
     53400   5.1455123      20614.952      6724.9433      48.731617      2.3577398     -152749.95     -152737.77    
     53500   5.2450108      20543.85       6724.9433      48.731617      2.3577398     -152749.99     -152737.58    
     53600   4.9504923      22563.516      6724.9433      48.731617      2.3577398     -152749.58     -152737.86    
     53700   5.0824661      19608.783      6724.9433      48.731617      2.3577398     -152750.05     -152738.02    
     53800   4.6972959      24223.691      6724.9433      48.731617      2.3577398     -152749.3      -152738.18    
     53900   5.0954023      16731.884      6724.9433      48.731617      2.3577398     -152750.27     -152738.21    
     54000   5.1895004      24407.551      6724.9433      48.731617      2.3577398     -152750.17     -152737.89    
     54100   5.116975       18497.293      6724.9433      48.731617      2.3577398     -152750.17     -152738.06    
     54200   4.8953109      24782.7        6724.9433      48.731617      2.3577398     -152750        -152738.41    
     54300   4.6517843      27020.413      6724.9433      48.731617      2.3577398     -152749.84     -152738.83    
     54400   5.0059624      17253.783      6724.9433      48.731617      2.3577398     -152750.58     -152738.73    
     54500   4.8891657      25168.639      6724.9433      48.731617      2.3577398     -152749.45     -152737.88    
     54600   5.0886715      14731.637      6724.9433      48.731617      2.3577398     -152749.13     -152737.09    
     54700   5.1953352      29385.222      6724.9433      48.731617      2.3577398     -152749.27     -152736.97    
     54800   5.1800063      18246.075      6724.9433      48.731617      2.3577398     -152749.61     -152737.35    
     54900   4.893642       21293.4        6724.9433      48.731617      2.3577398     -152749.77     -152738.19    
     55000   5.0045764      26225.655      6724.9433      48.731617      2.3577398     -152750.61     -152738.76    
     55100   4.8271163      20655.037      6724.9433      48.731617      2.3577398     -152750.19     -152738.76    
     55200   4.7858448      25160.097      6724.9433      48.731617      2.3577398     -152749.64     -152738.31    
     55300   5.1504701      14100.927      6724.9433      48.731617      2.3577398     -152750.06     -152737.87    
     55400   5.0899244      25833.202      6724.9433      48.731617      2.3577398     -152749.85     -152737.81    
     55500   5.0418589      24527.201      6724.9433      48.731617      2.3577398     -152750        -152738.07    
     55600   5.0965849      19513.35       6724.9433      48.731617      2.3577398     -152750.1      -152738.04    
     55700   4.9944555      21681.576      6724.9433      48.731617      2.3577398     -152749.7      -152737.88    
     55800   5.1111756      15910.99       6724.9433      48.731617      2.3577398     -152749.69     -152737.6     
     55900   5.0950776      22522.624      6724.9433      48.731617      2.3577398     -152749.69     -152737.63    
     56000   5.1309664      22855.107      6724.9433      48.731617      2.3577398     -152750.06     -152737.91    
     56100   4.9923478      22899.696      6724.9433      48.731617      2.3577398     -152750.4      -152738.59    
     56200   4.9282042      19465.55       6724.9433      48.731617      2.3577398     -152750.56     -152738.89    
     56300   4.9023623      26071.802      6724.9433      48.731617      2.3577398     -152750.24     -152738.64    
     56400   5.0927891      18811.88       6724.9433      48.731617      2.3577398     -152749.78     -152737.73    
     56500   5.2301878      22396.562      6724.9433      48.731617      2.3577398     -152749.61     -152737.23    
     56600   5.2472626      20342.359      6724.9433      48.731617      2.3577398     -152749.82     -152737.4     
     56700   4.9850718      24445.127      6724.9433      48.731617      2.3577398     -152749.54     -152737.74    
     56800   4.7109998      20366.309      6724.9433      48.731617      2.3577398     -152749.41     -152738.26    
     56900   4.7819018      19540.514      6724.9433      48.731617      2.3577398     -152749.9      -152738.58    
     57000   4.982288       21853.537      6724.9433      48.731617      2.3577398     -152749.98     -152738.19    
     57100   4.9813472      19676.635      6724.9433      48.731617      2.3577398     -152749.51     -152737.72    
     57200   4.953418       21194.376      6724.9433      48.731617      2.3577398     -152749.22     -152737.49    
     57300   4.9853894      19074.852      6724.9433      48.731617      2.3577398     -152749.43     -152737.63    
     57400   4.9569475      14454.279      6724.9433      48.731617      2.3577398     -152749.38     -152737.65    
     57500   5.0904141      24528.445      6724.9433      48.731617      2.3577398     -152749.79     -152737.74    
     57600   5.0806242      18006.842      6724.9433      48.731617      2.3577398     -152749.78     -152737.75    
     57700   5.0179018      31136.73       6724.9433      48.731617      2.3577398     -152749.89     -152738.01    
     57800   5.2027402      20185.517      6724.9433      48.731617      2.3577398     -152750.52     -152738.21    
     57900   5.0654852      25308.427      6724.9433      48.731617      2.3577398     -152750.62     -152738.63    
     58000   4.9647625      28267.271      6724.9433      48.731617      2.3577398     -152750.63     -152738.88    
     58100   4.8887753      17207.991      6724.9433      48.731617      2.3577398     -152750.06     -152738.49    
     58200   5.0628229      17628.778      6724.9433      48.731617      2.3577398     -152749.44     -152737.46    
     58300   5.1857737      16138.202      6724.9433      48.731617      2.3577398     -152748.86     -152736.58    
     58400   5.2448991      19984.38       6724.9433      48.731617      2.3577398     -152749.01     -152736.59    
     58500   4.8492561      21285.737      6724.9433      48.731617      2.3577398     -152748.76     -152737.28    
     58600   4.8140177      24281.537      6724.9433      48.731617      2.3577398     -152749.53     -152738.14    
     58700   4.9312514      24009.509      6724.9433      48.731617      2.3577398     -152750.63     -152738.96    
     58800   4.7619776      24750.112      6724.9433      48.731617      2.3577398     -152750.55     -152739.28    
     58900   4.9555881      22391.861      6724.9433      48.731617      2.3577398     -152750.66     -152738.93    
     59000   5.0300248      15988.688      6724.9433      48.731617      2.3577398     -152749.99     -152738.08    
     59100   5.0641177      23576.821      6724.9433      48.731617      2.3577398     -152749.23     -152737.25    
     59200   4.9314847      16937.946      6724.9433      48.731617      2.3577398     -152748.27     -152736.6     
     59300   5.1402468      30997.707      6724.9433      48.731617      2.3577398     -152748.95     -152736.79    
     59400   5.1550108      20419.282      6724.9433      48.731617      2.3577398     -152749.39     -152737.19    
     59500   4.9996211      21576.042      6724.9433      48.731617      2.3577398     -152749.44     -152737.61    
     59600   4.9290439      19263.796      6724.9433      48.731617      2.3577398     -152749.84     -152738.17    
     59700   4.8978031      22188.273      6724.9433      48.731617      2.3577398     -152750.03     -152738.43    
     59800   5.1253072      27048.587      6724.9433      48.731617      2.3577398     -152750.79     -152738.66    
     59900   5.0399139      20481.342      6724.9433      48.731617      2.3577398     -152750.8      -152738.87    
     60000   4.8240851      22752.842      6724.9433      48.731617      2.3577398     -152749.85     -152738.44    
     60100   4.786764       21319.606      6724.9433      48.731617      2.3577398     -152749.15     -152737.82    
     60200   5.0577505      20338.317      6724.9433      48.731617      2.3577398     -152748.76     -152736.79    
     60300   5.0849563      22138.96       6724.9433      48.731617      2.3577398     -152748.33     -152736.3     
     60400   5.2740664      23315.428      6724.9433      48.731617      2.3577398     -152748.87     -152736.39    
     60500   5.1252102      19689.312      6724.9433      48.731617      2.3577398     -152749.32     -152737.19    
     60600   5.0351165      20562.207      6724.9433      48.731617      2.3577398     -152750.27     -152738.35    
     60700   4.9844632      18353.809      6724.9433      48.731617      2.3577398     -152751.24     -152739.45    
     60800   4.741233       21607.313      6724.9433      48.731617      2.3577398     -152750.79     -152739.57    
     60900   4.9336372      30693.364      6724.9433      48.731617      2.3577398     -152750.34     -152738.67    
     61000   5.2568341      18667.532      6724.9433      48.731617      2.3577398     -152750.07     -152737.63    
     61100   5.0839289      24754.354      6724.9433      48.731617      2.3577398     -152749.01     -152736.98    
     61200   5.0365036      15819.241      6724.9433      48.731617      2.3577398     -152748.83     -152736.91    
     61300   5.0383831      22324.879      6724.9433      48.731617      2.3577398     -152749.1      -152737.17    
     61400   4.9487542      28255.059      6724.9433      48.731617      2.3577398     -152749.29     -152737.57    
     61500   5.0462716      14365.968      6724.9433      48.731617      2.3577398     -152749.64     -152737.69    
     61600   5.0750915      22964.004      6724.9433      48.731617      2.3577398     -152749.86     -152737.85    
     61700   5.0248835      20220.601      6724.9433      48.731617      2.3577398     -152749.83     -152737.93    
     61800   5.2436783      18957.681      6724.9433      48.731617      2.3577398     -152750.5      -152738.09    
     61900   4.9857792      17467.535      6724.9433      48.731617      2.3577398     -152750.14     -152738.34    
     62000   5.0444122      15753.511      6724.9433      48.731617      2.3577398     -152750.12     -152738.18    
     62100   4.8827962      21982.664      6724.9433      48.731617      2.3577398     -152749.5      -152737.94    
     62200   4.9888529      22096.066      6724.9433      48.731617      2.3577398     -152749.54     -152737.74    
     62300   4.9638056      27533.508      6724.9433      48.731617      2.3577398     -152749.2      -152737.45    
     62400   5.2156572      23273.182      6724.9433      48.731617      2.3577398     -152749.52     -152737.17    
     62500   5.2212648      26263.886      6724.9433      48.731617      2.3577398     -152749.56     -152737.2     
     62600   4.9722959      21952.177      6724.9433      48.731617      2.3577398     -152749.63     -152737.87    
     62700   4.6545728      16461.899      6724.9433      48.731617      2.3577398     -152749.27     -152738.25    
     62800   4.8716085      19046.563      6724.9433      48.731617      2.3577398     -152749.92     -152738.39    
     62900   4.8818287      19355.161      6724.9433      48.731617      2.3577398     -152749.41     -152737.86    
     63000   4.9541019      25561.043      6724.9433      48.731617      2.3577398     -152748.98     -152737.25    
     63100   5.3154607      16771.313      6724.9433      48.731617      2.3577398     -152749.85     -152737.27    
     63200   5.1385324      19841.911      6724.9433      48.731617      2.3577398     -152749.98     -152737.82    
     63300   4.8821704      14653.385      6724.9433      48.731617      2.3577398     -152749.99     -152738.44    
     63400   4.9060082      22233.56       6724.9433      48.731617      2.3577398     -152750.53     -152738.92    
     63500   4.8683677      22767.335      6724.9433      48.731617      2.3577398     -152750.19     -152738.67    
     63600   5.1327884      20401.584      6724.9433      48.731617      2.3577398     -152750.14     -152737.99    
     63700   4.956964       26734.865      6724.9433      48.731617      2.3577398     -152748.88     -152737.15    
     63800   5.0765052      17173.169      6724.9433      48.731617      2.3577398     -152748.57     -152736.55    
     63900   4.9671968      24566.687      6724.9433      48.731617      2.3577398     -152748.54     -152736.78    
     64000   5.0436403      18157.626      6724.9433      48.731617      2.3577398     -152749.01     -152737.08    
     64100   5.0188497      21687.608      6724.9433      48.731617      2.3577398     -152749.85     -152737.97    
     64200   4.8217343      25242.392      6724.9433      48.731617      2.3577398     -152750.29     -152738.88    
     64300   4.9730449      23402.055      6724.9433      48.731617      2.3577398     -152750.86     -152739.09    
     64400   4.8131349      19727.57       6724.9433      48.731617      2.3577398     -152750.33     -152738.94    
     64500   4.7022034      16353.129      6724.9433      48.731617      2.3577398     -152749.66     -152738.53    
[...]
    384200   4.7387053      27392.899      6724.9433      48.731617      2.3577398     -152749.73     -152738.51    
    384300   4.9439486      18878.196      6724.9433      48.731617      2.3577398     -152749.54     -152737.84    
    384400   4.9539942      23636.541      6724.9433      48.731617      2.3577398     -152749.27     -152737.54    
    384500   5.0427708      20180.884      6724.9433      48.731617      2.3577398     -152749.49     -152737.56    
    384600   5.0271423      18833.765      6724.9433      48.731617      2.3577398     -152749.97     -152738.07    
    384700   4.9044082      26807.019      6724.9433      48.731617      2.3577398     -152749.75     -152738.14    
    384800   4.9832489      18152.818      6724.9433      48.731617      2.3577398     -152749.9      -152738.11    
    384900   5.0905062      25581.531      6724.9433      48.731617      2.3577398     -152750.11     -152738.07    
    385000   5.1549431      20596.164      6724.9433      48.731617      2.3577398     -152750.53     -152738.33    
    385100   4.8690753      16521.796      6724.9433      48.731617      2.3577398     -152750.41     -152738.89    
    385200   4.8309704      25473.28       6724.9433      48.731617      2.3577398     -152750.47     -152739.04    
    385300   5.0246912      15190.241      6724.9433      48.731617      2.3577398     -152749.96     -152738.07    
    385400   4.8532559      26492.833      6724.9433      48.731617      2.3577398     -152749.13     -152737.64    
    385500   4.9671306      19163.537      6724.9433      48.731617      2.3577398     -152749.31     -152737.56    
    385600   4.9106051      17900.207      6724.9433      48.731617      2.3577398     -152749.05     -152737.43    
    385700   4.9651869      25590.407      6724.9433      48.731617      2.3577398     -152749.44     -152737.69    
    385800   4.8802649      15717.48       6724.9433      48.731617      2.3577398     -152749.91     -152738.36    
    385900   5.0251916      28783.928      6724.9433      48.731617      2.3577398     -152750.67     -152738.78    
    386000   5.1877018      20402.484      6724.9433      48.731617      2.3577398     -152750.7      -152738.42    
    386100   5.3475284      20127.33       6724.9433      48.731617      2.3577398     -152750.14     -152737.48    
    386200   5.3305695      20482.84       6724.9433      48.731617      2.3577398     -152750.11     -152737.49    
    386300   5.0964203      16657.834      6724.9433      48.731617      2.3577398     -152750.2      -152738.14    
    386400   4.7896117      29352.404      6724.9433      48.731617      2.3577398     -152749.72     -152738.39    
    386500   4.7500632      15342.472      6724.9433      48.731617      2.3577398     -152749.39     -152738.15    
    386600   5.0020675      31643.091      6724.9433      48.731617      2.3577398     -152749.46     -152737.62    
    386700   5.2014995      10644.753      6724.9433      48.731617      2.3577398     -152749.55     -152737.24    
    386800   5.1727219      23918.201      6724.9433      48.731617      2.3577398     -152749.86     -152737.61    
    386900   5.0756563      21663.561      6724.9433      48.731617      2.3577398     -152750.66     -152738.65    
    387000   4.883692       19792.588      6724.9433      48.731617      2.3577398     -152749.97     -152738.41    
    387100   5.1734318      30194.508      6724.9433      48.731617      2.3577398     -152750.07     -152737.82    
    387200   5.2152558      15127.951      6724.9433      48.731617      2.3577398     -152749.92     -152737.58    
    387300   4.8573261      26479.688      6724.9433      48.731617      2.3577398     -152749.3      -152737.8     
    387400   4.8073796      19498.142      6724.9433      48.731617      2.3577398     -152750.14     -152738.76    
    387500   4.7648077      21340.287      6724.9433      48.731617      2.3577398     -152749.84     -152738.56    
    387600   4.9989005      16838.423      6724.9433      48.731617      2.3577398     -152749.84     -152738       
    387700   4.9336807      21211.513      6724.9433      48.731617      2.3577398     -152749.69     -152738.01    
    387800   5.2041358      19389.783      6724.9433      48.731617      2.3577398     -152750.14     -152737.83    
    387900   4.9994714      22888.804      6724.9433      48.731617      2.3577398     -152749.74     -152737.91    
    388000   4.8198719      23225.299      6724.9433      48.731617      2.3577398     -152749.68     -152738.27    
    388100   4.9032966      17557.182      6724.9433      48.731617      2.3577398     -152750.25     -152738.64    
    388200   5.0921453      23339.983      6724.9433      48.731617      2.3577398     -152750.43     -152738.38    
    388300   5.2632356      17910.643      6724.9433      48.731617      2.3577398     -152750.13     -152737.67    
    388400   5.0578628      24246.616      6724.9433      48.731617      2.3577398     -152749.79     -152737.81    
    388500   4.7800557      19154.438      6724.9433      48.731617      2.3577398     -152749.51     -152738.19    
    388600   4.7274822      23375.528      6724.9433      48.731617      2.3577398     -152750.26     -152739.07    
    388700   4.6641968      18892.65       6724.9433      48.731617      2.3577398     -152750        -152738.96    
    388800   4.9074277      17904.825      6724.9433      48.731617      2.3577398     -152750.12     -152738.51    
    388900   4.8910823      22066.356      6724.9433      48.731617      2.3577398     -152749.6      -152738.02    
    389000   5.1119575      20663.997      6724.9433      48.731617      2.3577398     -152749.63     -152737.53    
    389100   5.0263731      26337.095      6724.9433      48.731617      2.3577398     -152749.33     -152737.43    
    389200   5.1027486      17588.341      6724.9433      48.731617      2.3577398     -152750.02     -152737.94    
    389300   4.9592718      22284.77       6724.9433      48.731617      2.3577398     -152750.37     -152738.63    
    389400   5.0417867      18416.665      6724.9433      48.731617      2.3577398     -152750.48     -152738.55    
    389500   5.1444394      21009.418      6724.9433      48.731617      2.3577398     -152750.29     -152738.11    
    389600   5.2311795      25433.794      6724.9433      48.731617      2.3577398     -152750.18     -152737.8     
    389700   5.1717832      15613.065      6724.9433      48.731617      2.3577398     -152750.12     -152737.88    
    389800   5.1877825      28019.632      6724.9433      48.731617      2.3577398     -152750.17     -152737.89    
    389900   5.0845851      17192.872      6724.9433      48.731617      2.3577398     -152749.99     -152737.95    
    390000   5.0172357      27648.051      6724.9433      48.731617      2.3577398     -152749.13     -152737.25    
    390100   5.2720575      16764.217      6724.9433      48.731617      2.3577398     -152749.2      -152736.72    
    390200   4.971815       22117.915      6724.9433      48.731617      2.3577398     -152748.78     -152737.01    
    390300   4.9927618      18652.887      6724.9433      48.731617      2.3577398     -152749.16     -152737.34    
    390400   5.0148073      21719.267      6724.9433      48.731617      2.3577398     -152749.42     -152737.55    
    390500   4.8593173      23509.378      6724.9433      48.731617      2.3577398     -152749.56     -152738.06    
    390600   4.8433811      17377.428      6724.9433      48.731617      2.3577398     -152749.92     -152738.46    
    390700   4.6733446      20658.572      6724.9433      48.731617      2.3577398     -152749.57     -152738.51    
    390800   5.2044843      17732.144      6724.9433      48.731617      2.3577398     -152749.86     -152737.55    
    390900   5.2897098      21922.77       6724.9433      48.731617      2.3577398     -152749.58     -152737.06    
    391000   4.9187974      21329.516      6724.9433      48.731617      2.3577398     -152749.12     -152737.48    
    391100   4.8836205      20312.188      6724.9433      48.731617      2.3577398     -152749.45     -152737.89    
    391200   5.0323913      21490.954      6724.9433      48.731617      2.3577398     -152749.85     -152737.94    
    391300   5.0142844      24522.622      6724.9433      48.731617      2.3577398     -152749.61     -152737.74    
    391400   5.1410722      17324.748      6724.9433      48.731617      2.3577398     -152749.36     -152737.2     
    391500   5.0789596      23392.718      6724.9433      48.731617      2.3577398     -152749.37     -152737.35    
    391600   4.9203078      22980.97       6724.9433      48.731617      2.3577398     -152749.85     -152738.21    
    391700   4.8585849      20452.579      6724.9433      48.731617      2.3577398     -152749.77     -152738.28    
    391800   4.9890888      20871.559      6724.9433      48.731617      2.3577398     -152749.84     -152738.03    
    391900   5.1117776      16501.379      6724.9433      48.731617      2.3577398     -152749.54     -152737.44    
    392000   4.9708716      18062.072      6724.9433      48.731617      2.3577398     -152748.67     -152736.9     
    392100   4.9670786      20287.109      6724.9433      48.731617      2.3577398     -152748.72     -152736.96    
    392200   4.805533       25027.88       6724.9433      48.731617      2.3577398     -152749.51     -152738.14    
    392300   4.7153558      18984.423      6724.9433      48.731617      2.3577398     -152749.45     -152738.29    
    392400   4.9007062      23273.615      6724.9433      48.731617      2.3577398     -152749.53     -152737.93    
    392500   5.1381711      20504.07       6724.9433      48.731617      2.3577398     -152749.62     -152737.46    
    392600   4.9947796      18931.125      6724.9433      48.731617      2.3577398     -152749.07     -152737.25    
    392700   5.0228554      25975.842      6724.9433      48.731617      2.3577398     -152749.84     -152737.95    
    392800   5.075227       15713.854      6724.9433      48.731617      2.3577398     -152750.4      -152738.39    
    392900   4.9779993      25874.534      6724.9433      48.731617      2.3577398     -152749.77     -152737.99    
    393000   5.0446798      20688.004      6724.9433      48.731617      2.3577398     -152749.52     -152737.58    
    393100   4.9271922      21411.352      6724.9433      48.731617      2.3577398     -152749.15     -152737.49    
    393200   4.9521848      21866.792      6724.9433      48.731617      2.3577398     -152749.13     -152737.41    
    393300   5.0745621      18717.657      6724.9433      48.731617      2.3577398     -152749.51     -152737.5     
    393400   4.9056322      27589.902      6724.9433      48.731617      2.3577398     -152749.66     -152738.05    
    393500   4.9845243      15476.279      6724.9433      48.731617      2.3577398     -152750.54     -152738.74    
    393600   4.9683805      24121.09       6724.9433      48.731617      2.3577398     -152750.48     -152738.72    
    393700   4.964034       13569.484      6724.9433      48.731617      2.3577398     -152749.85     -152738.1     
    393800   4.8709623      26222.415      6724.9433      48.731617      2.3577398     -152749.23     -152737.71    
    393900   5.160855       16845.266      6724.9433      48.731617      2.3577398     -152749.75     -152737.53    
    394000   5.0953627      20006.555      6724.9433      48.731617      2.3577398     -152749.96     -152737.9     
    394100   5.0096471      19444.358      6724.9433      48.731617      2.3577398     -152750.08     -152738.23    
    394200   4.9767609      18899.528      6724.9433      48.731617      2.3577398     -152750.15     -152738.37    
    394300   4.9413709      29049.825      6724.9433      48.731617      2.3577398     -152749.89     -152738.2     
    394400   5.0722908      14360.782      6724.9433      48.731617      2.3577398     -152749.4      -152737.4     
    394500   5.1490658      31223.939      6724.9433      48.731617      2.3577398     -152749.37     -152737.18    
    394600   5.1779345      13363.751      6724.9433      48.731617      2.3577398     -152749.85     -152737.59    
    394700   4.9052186      24867.13       6724.9433      48.731617      2.3577398     -152749.85     -152738.24    
    394800   4.8030517      19671.452      6724.9433      48.731617      2.3577398     -152749.8      -152738.44    
    394900   4.9201701      13795.671      6724.9433      48.731617      2.3577398     -152749.86     -152738.21    
    395000   4.9907178      30396.699      6724.9433      48.731617      2.3577398     -152749.54     -152737.73    
    395100   4.9516966      13465.734      6724.9433      48.731617      2.3577398     -152749.37     -152737.65    
    395200   4.7996773      31760.967      6724.9433      48.731617      2.3577398     -152749.09     -152737.73    
    395300   4.8843284      12902.393      6724.9433      48.731617      2.3577398     -152749.67     -152738.11    
    395400   4.7567194      22721.611      6724.9433      48.731617      2.3577398     -152749.52     -152738.26    
    395500   4.5870544      17993.544      6724.9433      48.731617      2.3577398     -152748.9      -152738.04    
    395600   5.1943502      22040.771      6724.9433      48.731617      2.3577398     -152749.55     -152737.26    
    395700   5.1137544      25497.634      6724.9433      48.731617      2.3577398     -152749.33     -152737.23    
    395800   5.215838       17696.264      6724.9433      48.731617      2.3577398     -152750.14     -152737.79    
    395900   4.9961168      29431.783      6724.9433      48.731617      2.3577398     -152750.23     -152738.41    
    396000   4.9904076      14223.694      6724.9433      48.731617      2.3577398     -152750.26     -152738.44    
    396100   4.9503452      27486.488      6724.9433      48.731617      2.3577398     -152750.12     -152738.41    
    396200   5.0684212      19670.07       6724.9433      48.731617      2.3577398     -152749.8      -152737.8     
    396300   5.2818447      23126.523      6724.9433      48.731617      2.3577398     -152749.55     -152737.05    
    396400   5.1114462      19347.743      6724.9433      48.731617      2.3577398     -152749.11     -152737.01    
    396500   4.8896011      18236.632      6724.9433      48.731617      2.3577398     -152748.96     -152737.38    
    396600   5.004712       21826.25       6724.9433      48.731617      2.3577398     -152749.33     -152737.48    
    396700   4.8399192      18517.01       6724.9433      48.731617      2.3577398     -152749.29     -152737.83    
    396800   4.7818252      25619.3        6724.9433      48.731617      2.3577398     -152749.72     -152738.4     
    396900   4.7242196      15817.495      6724.9433      48.731617      2.3577398     -152749.83     -152738.65    
    397000   4.7322149      25046.426      6724.9433      48.731617      2.3577398     -152749.68     -152738.48    
    397100   5.0407306      15281.121      6724.9433      48.731617      2.3577398     -152749.64     -152737.71    
    397200   5.0199483      23412.676      6724.9433      48.731617      2.3577398     -152749.28     -152737.4     
    397300   4.7820513      22297.741      6724.9433      48.731617      2.3577398     -152748.9      -152737.58    
    397400   4.7362074      21181.686      6724.9433      48.731617      2.3577398     -152749.33     -152738.12    
    397500   4.8786857      24178.435      6724.9433      48.731617      2.3577398     -152749.68     -152738.13    
    397600   5.0101623      20718.55       6724.9433      48.731617      2.3577398     -152749.42     -152737.56    
    397700   5.2212906      25856.318      6724.9433      48.731617      2.3577398     -152749.42     -152737.06    
    397800   5.2060125      15679.049      6724.9433      48.731617      2.3577398     -152749.64     -152737.32    
    397900   4.9390291      25872.475      6724.9433      48.731617      2.3577398     -152749.8      -152738.11    
    398000   4.8259738      14304.563      6724.9433      48.731617      2.3577398     -152749.71     -152738.29    
    398100   4.8552029      17338.464      6724.9433      48.731617      2.3577398     -152749.82     -152738.33    
    398200   5.1055631      24652.611      6724.9433      48.731617      2.3577398     -152750.04     -152737.95    
    398300   5.1428172      15578.501      6724.9433      48.731617      2.3577398     -152749.51     -152737.34    
    398400   4.9794675      34581.014      6724.9433      48.731617      2.3577398     -152748.7      -152736.91    
    398500   5.0644588      14610.747      6724.9433      48.731617      2.3577398     -152749.32     -152737.34    
    398600   4.9092157      20278.912      6724.9433      48.731617      2.3577398     -152749.81     -152738.19    
    398700   4.8603344      20606.304      6724.9433      48.731617      2.3577398     -152749.86     -152738.36    
    398800   4.9773848      13535.752      6724.9433      48.731617      2.3577398     -152749.96     -152738.18    
    398900   5.2670869      31894.114      6724.9433      48.731617      2.3577398     -152750.11     -152737.65    
    399000   5.2653288      18761.149      6724.9433      48.731617      2.3577398     -152749.68     -152737.22    
    399100   5.0654393      29529.47       6724.9433      48.731617      2.3577398     -152749.64     -152737.65    
    399200   4.9678966      16123.484      6724.9433      48.731617      2.3577398     -152750.21     -152738.45    
    399300   4.8944336      19581.892      6724.9433      48.731617      2.3577398     -152750.12     -152738.53    
    399400   5.0732323      19023.772      6724.9433      48.731617      2.3577398     -152750.28     -152738.27    
    399500   4.9004584      20533.277      6724.9433      48.731617      2.3577398     -152749.14     -152737.54    
    399600   5.1916073      27669.569      6724.9433      48.731617      2.3577398     -152749.43     -152737.15    
    399700   5.1527157      12481.467      6724.9433      48.731617      2.3577398     -152749.55     -152737.35    
    399800   4.9954591      22246.279      6724.9433      48.731617      2.3577398     -152749.41     -152737.59    
    399900   5.0546584      19341.035      6724.9433      48.731617      2.3577398     -152749.82     -152737.86    
    400000   5.0116211      25131.091      6724.9433      48.731617      2.3577398     -152749.82     -152737.95    
    400011   4.9662938      24108.201      6724.9433      48.731617      2.3577398     -152749.74     -152737.98    
Loop time of 15149.6 on 64 procs for 400000 steps with 795 atoms

Performance: 0.570 ns/day, 42.082 hours/ns, 26.403 timesteps/s
99.6% CPU use with 64 MPI tasks x 1 OpenMP threads

MPI task timing breakdown:
Section |  min time  |  avg time  |  max time  |%varavg| %total
---------------------------------------------------------------
Pair    | 8652.6     | 11045      | 13895      |1470.1 | 72.91
Neigh   | 2.77       | 3.5484     | 4.5062     |  24.2 |  0.02
Comm    | 113.5      | 2733.8     | 4950.6     |2648.8 | 18.05
Output  | 0.52984    | 0.64658    | 0.9181     |   9.1 |  0.00
Modify  | 1123.6     | 1363.8     | 2140.3     | 672.1 |  9.00
Other   |            | 2.641      |            |       |  0.02

Nlocal:        12.4219 ave          16 max           9 min
Histogram: 1 15 3 0 17 10 0 2 15 1
Nghost:        2198.34 ave        2550 max        1895 min
Histogram: 4 6 10 4 11 13 6 2 6 2
Neighs:        6803.33 ave        9078 max        4002 min
Histogram: 4 4 7 4 9 8 7 5 5 11

Total # of neighbors = 435413
Ave neighs/atom = 547.68931
Neighbor list builds = 336
Dangerous builds = 0

write_data graphene_single_layer_ReaxFF_750_C_temp_5K.data ### MODIFY FILE NAME ###
System init for write_data ...
Total wall time: 4:12:32
