
# System definition
read_data graphene_single_layer_x-45_y-45_795_C.data ### MODIFY FILE NAME ###
Reading data file ...
  orthogonal box = (-1.4464652 -1.4423034 -1.42) to (47.285152 47.149102 1.42)
  8 by 8 by 1 MPI processor grid
  reading atoms ...
  795 atoms
  reading velocities ...
  795 velocities
  read_data CPU = 0.057 seconds

pair_style reax/c NULL
pair_coeff * * ffield.reax.cho C
Reading potential file ffield.reax.cho with DATE: 2011-02-18
fix qeq_reax all qeq/reax 1 0.0 10.0 1.0e-6 reax/c


# Minimization
timestep 0.25
min_style cg
thermo 100
thermo_style custom step temp press vol lx density pe etotal
dump 2 all custom 1000 graphene_single_layer_ReaxFF_795_C_temp_1400K.lammpstrj id type x y z ### MODIFY FILE NAME ###
minimize 1.0e-6 1.0e-6 100 1000

CITE-CITE-CITE-CITE-CITE-CITE-CITE-CITE-CITE-CITE-CITE-CITE-CITE

Your simulation uses code contributions which should be cited:

- pair reaxff command:

@Article{Aktulga12,
 author = {H. M. Aktulga, J. C. Fogarty, S. A. Pandit, A. Y. Grama},
 title = {Parallel reactive molecular dynamics: Numerical methods and algorithmic techniques},
 journal = {Parallel Computing},
 year =    2012,
 volume =  38,
 pages =   {245--259}
}

- fix qeq/reaxff command:

@Article{Aktulga12,
 author = {H. M. Aktulga, J. C. Fogarty, S. A. Pandit, A. Y. Grama},
 title = {Parallel reactive molecular dynamics: Numerical methods and algorithmic techniques},
 journal = {Parallel Computing},
 year =    2012,
 volume =  38,
 pages =   {245--259}
}

CITE-CITE-CITE-CITE-CITE-CITE-CITE-CITE-CITE-CITE-CITE-CITE-CITE

WARNING: Using 'neigh_modify every 1 delay 0 check yes' setting during minimization (src/min.cpp:187)
Neighbor list info ...
  update every 1 steps, delay 0 steps, check yes
  max neighbors/atom: 10000, page size: 100000
  master list distance cutoff = 10.4
  ghost atom cutoff = 10.4
  binsize = 5.2, bins = 10 10 1
  2 neighbor lists, perpetual/occasional/extra = 2 0 0
  (1) pair reax/c, perpetual
      attributes: half, newton off, ghost
      pair build: half/bin/newtoff/ghost
      stencil: full/ghost/bin/3d
      bin: standard
  (2) fix qeq/reax, perpetual, copy from (1)
      attributes: half, newton off
      pair build: copy
      stencil: none
      bin: none
Per MPI rank memory allocation (min/avg/max) = 36.37 | 41.41 | 47.38 Mbytes
   Step          Temp          Press          Volume           Lx          Density         PotEng         TotEng    
         0   923            34054.396      6724.9433      48.731617      2.3577398     -151766.67     -149582.14    
        11   923            35396.792      6724.9433      48.731617      2.3577398     -151904.55     -149720.03    
Loop time of 2.11571 on 64 procs for 11 steps with 795 atoms

98.1% CPU use with 64 MPI tasks x 1 OpenMP threads

Minimization stats:
  Stopping criterion = energy tolerance
  Energy initial, next-to-last, final = 
     -151766.666472543  -151904.508881892  -151904.547898656
  Force two-norm initial, final = 279.94165 356.09863
  Force max component initial, final = 137.99181 55.448555
  Final line search alpha, max atom move = 0.00038853166 0.021543519
  Iterations, force evaluations = 11 32

MPI task timing breakdown:
Section |  min time  |  avg time  |  max time  |%varavg| %total
---------------------------------------------------------------
Pair    | 0.86499    | 1.2486     | 1.7413     |  16.8 | 59.02
Neigh   | 0.010792   | 0.018803   | 0.024033   |   2.0 |  0.89
Comm    | 0.04707    | 0.45823    | 0.75293    |  24.1 | 21.66
Output  | 0          | 0          | 0          |   0.0 |  0.00
Modify  | 0.29766    | 0.30305    | 0.31127    |   0.5 | 14.32
Other   |            | 0.08698    |            |       |  4.11

Nlocal:        12.4219 ave          15 max          10 min
Histogram: 15 0 0 0 22 0 12 0 0 15
Nghost:        2194.12 ave        2559 max        1869 min
Histogram: 2 8 9 4 12 12 5 4 6 2
Neighs:        6807.34 ave        8856 max        4476 min
Histogram: 4 8 3 7 7 13 5 2 0 15

Total # of neighbors = 435670
Ave neighs/atom = 548.01258
Neighbor list builds = 1
Dangerous builds = 0

fix 1 all nvt temp 1400.0 1400.0 $(100.0*dt)  ### MODIFY INIT TEMP, FINAL TEMP ###
fix 1 all nvt temp 1400.0 1400.0 25  
run 400000
Per MPI rank memory allocation (min/avg/max) = 35.25 | 40.29 | 46.26 Mbytes
   Step          Temp          Press          Volume           Lx          Density         PotEng         TotEng    
        11   923            35396.792      6724.9433      48.731617      2.3577398     -151904.55     -149720.03    
       100   614.84982      27553.191      6724.9433      48.731617      2.3577398     -150926.58     -149471.38    
       200   638.13707      185226.96      6724.9433      48.731617      2.3577398     -150481.48     -148971.16    
       300   857.44788     -49867.882      6724.9433      48.731617      2.3577398     -150395.36     -148365.98    
       400   1084.3483     -25238.982      6724.9433      48.731617      2.3577398     -150179.73     -147613.34    
       500   1217.258       32450.745      6724.9433      48.731617      2.3577398     -149687.46     -146806.5     
       600   1375.6034      65954.494      6724.9433      48.731617      2.3577398     -149366.93     -146111.2     
       700   1456.6938      32741.205      6724.9433      48.731617      2.3577398     -149035.02     -145587.37    
       800   1568.841       96112.704      6724.9433      48.731617      2.3577398     -149149.42     -145436.34    
       900   1476.3353      63917.155      6724.9433      48.731617      2.3577398     -149226        -145731.86    
      1000   1406.2639      53516.067      6724.9433      48.731617      2.3577398     -149412.84     -146084.55    
      1100   1324.8291      5651.0873      6724.9433      48.731617      2.3577398     -149378.97     -146243.41    
      1200   1362.6755      16062.027      6724.9433      48.731617      2.3577398     -149476.49     -146251.36    
      1300   1414.7471      36268.536      6724.9433      48.731617      2.3577398     -149492.96     -146144.59    
      1400   1388.2463      5621.5407      6724.9433      48.731617      2.3577398     -149303.97     -146018.32    
      1500   1502.2374      48517.249      6724.9433      48.731617      2.3577398     -149421.84     -145866.4     
      1600   1415.7778      20481.569      6724.9433      48.731617      2.3577398     -149268.22     -145917.41    
      1700   1393.6201      80881.945      6724.9433      48.731617      2.3577398     -149357.05     -146058.69    
      1800   1405.4563     -8891.3983      6724.9433      48.731617      2.3577398     -149542.41     -146216.02    
      1900   1345.3778      74869.266      6724.9433      48.731617      2.3577398     -149504.96     -146320.76    
      2000   1382.9362     -698.8581       6724.9433      48.731617      2.3577398     -149565.25     -146292.17    
      2100   1413.2398     -16127.265      6724.9433      48.731617      2.3577398     -149474.67     -146129.87    
      2200   1392.0669      2662.063       6724.9433      48.731617      2.3577398     -149229.92     -145935.23    
      2300   1487.8375      61379.815      6724.9433      48.731617      2.3577398     -149403.79     -145882.43    
      2400   1411.303       100009.37      6724.9433      48.731617      2.3577398     -149427.79     -146087.57    
      2500   1355.2589     -7299.7488      6724.9433      48.731617      2.3577398     -149538.26     -146330.68    
      2600   1395.4108      399.28995      6724.9433      48.731617      2.3577398     -149697.51     -146394.9     
      2700   1339.0606     -29723.988      6724.9433      48.731617      2.3577398     -149456.15     -146286.91    
      2800   1419.987       28252.051      6724.9433      48.731617      2.3577398     -149435.93     -146075.16    
      2900   1417.5032     -9998.1771      6724.9433      48.731617      2.3577398     -149333.14     -145978.24    
      3000   1447.7527      33615.372      6724.9433      48.731617      2.3577398     -149461.37     -146034.88    
      3100   1387.2867      3129.0739      6724.9433      48.731617      2.3577398     -149527.25     -146243.87    
      3200   1350.6152      13179.951      6724.9433      48.731617      2.3577398     -149584.57     -146387.98    
      3300   1378.129       42495.271      6724.9433      48.731617      2.3577398     -149603.38     -146341.67    
      3400   1413.4325      5086.974       6724.9433      48.731617      2.3577398     -149509.62     -146164.36    
      3500   1396.8956      8396.3982      6724.9433      48.731617      2.3577398     -149362.07     -146055.95    
      3600   1368.0446      30555.475      6724.9433      48.731617      2.3577398     -149338.37     -146100.53    
      3700   1404.2095      94161.078      6724.9433      48.731617      2.3577398     -149516.41     -146192.98    
      3800   1354.7362      15549.182      6724.9433      48.731617      2.3577398     -149525.87     -146319.53    
      3900   1412.0654     -15112.539      6724.9433      48.731617      2.3577398     -149685.75     -146343.72    
      4000   1395.6139     -16477.838      6724.9433      48.731617      2.3577398     -149514.49     -146211.4     
      4100   1438.1906     -25417.581      6724.9433      48.731617      2.3577398     -149501.7      -146097.84    
      4200   1362.7929      18455.359      6724.9433      48.731617      2.3577398     -149397.63     -146172.22    
      4300   1336.3376      17258.73       6724.9433      48.731617      2.3577398     -149505.31     -146342.52    
      4400   1370.9789      80784.241      6724.9433      48.731617      2.3577398     -149762.63     -146517.85    
      4500   1333.3594     -36701.632      6724.9433      48.731617      2.3577398     -149572.11     -146416.36    
      4600   1376.9771     -49729.431      6724.9433      48.731617      2.3577398     -149452.24     -146193.26    
      4700   1440.7631      45974.026      6724.9433      48.731617      2.3577398     -149589.05     -146179.1     
      4800   1374.494       11986.88       6724.9433      48.731617      2.3577398     -149500.43     -146247.33    
      4900   1401.4125      93762.564      6724.9433      48.731617      2.3577398     -149552.34     -146235.53    
      5000   1464.2676     -4128.2627      6724.9433      48.731617      2.3577398     -149550.96     -146085.39    
      5100   1428.4376     -30411.689      6724.9433      48.731617      2.3577398     -149334.12     -145953.34    
      5200   1458.2744      42803.658      6724.9433      48.731617      2.3577398     -149529.67     -146078.28    
      5300   1402.7113     -18298.477      6724.9433      48.731617      2.3577398     -149553.19     -146233.3     
      5400   1439.9295      37019.699      6724.9433      48.731617      2.3577398     -149635.85     -146227.88    
      5500   1408.5002      46743.436      6724.9433      48.731617      2.3577398     -149549.81     -146216.23    
      5600   1375.8844      23426.805      6724.9433      48.731617      2.3577398     -149355.15     -146098.76    
      5700   1443.244       23724.107      6724.9433      48.731617      2.3577398     -149382.63     -145966.82    
      5800   1438.2282     -8298.1967      6724.9433      48.731617      2.3577398     -149339.37     -145935.43    
      5900   1455.9116      34756.608      6724.9433      48.731617      2.3577398     -149628.23     -146182.43    
      6000   1391.3922      87584.084      6724.9433      48.731617      2.3577398     -149601.18     -146308.09    
      6100   1357.5174      41040.291      6724.9433      48.731617      2.3577398     -149526.95     -146314.03    
      6200   1447.7186      19524.345      6724.9433      48.731617      2.3577398     -149556.44     -146130.03    
      6300   1348.9916      25752.039      6724.9433      48.731617      2.3577398     -149270.1      -146077.35    
      6400   1440.0544     -41545.92       6724.9433      48.731617      2.3577398     -149483.45     -146075.18    
      6500   1422.1758      53088.019      6724.9433      48.731617      2.3577398     -149548.18     -146182.23    
      6600   1373.3975      43851.231      6724.9433      48.731617      2.3577398     -149636.03     -146385.53    
      6700   1355.6484     -3.7874728      6724.9433      48.731617      2.3577398     -149577.13     -146368.63    
      6800   1397.0047      18569.909      6724.9433      48.731617      2.3577398     -149475.91     -146169.53    
      6900   1475.3627     -36564.922      6724.9433      48.731617      2.3577398     -149538.1      -146046.26    
      7000   1406.0306      31024.664      6724.9433      48.731617      2.3577398     -149473.65     -146145.91    
      7100   1390.9752      66242.007      6724.9433      48.731617      2.3577398     -149571.8      -146279.69    
      7200   1405.2075     -13605.534      6724.9433      48.731617      2.3577398     -149615.22     -146289.43    
      7300   1462.0333      31853.577      6724.9433      48.731617      2.3577398     -149714.42     -146254.13    
      7400   1347.9724     -15265.823      6724.9433      48.731617      2.3577398     -149409.02     -146218.68    
      7500   1386.0028      575.38473      6724.9433      48.731617      2.3577398     -149447.42     -146167.08    
      7600   1412.6625      51780.301      6724.9433      48.731617      2.3577398     -149398.52     -146055.09    
      7700   1494.7386     -27891.475      6724.9433      48.731617      2.3577398     -149432.35     -145894.65    
      7800   1417.2277      9909.9419      6724.9433      48.731617      2.3577398     -149388.21     -146033.97    
      7900   1432.6601      16238.817      6724.9433      48.731617      2.3577398     -149626.75     -146235.99    
      8000   1354.2139      29135.941      6724.9433      48.731617      2.3577398     -149548.18     -146343.08    
      8100   1359.6962     -10737.131      6724.9433      48.731617      2.3577398     -149531.41     -146313.33    
      8200   1421.9551     -11056.111      6724.9433      48.731617      2.3577398     -149461.78     -146096.35    
      8300   1413.1049      27378.329      6724.9433      48.731617      2.3577398     -149406.15     -146061.67    
      8400   1431.5767      11589.323      6724.9433      48.731617      2.3577398     -149523.23     -146135.03    
      8500   1367.7763      38896.551      6724.9433      48.731617      2.3577398     -149475.29     -146238.09    
      8600   1406.0806      86494.144      6724.9433      48.731617      2.3577398     -149552.17     -146224.31    
      8700   1410.9395      32563.435      6724.9433      48.731617      2.3577398     -149463.96     -146124.6     
      8800   1467.4428      36260.083      6724.9433      48.731617      2.3577398     -149350.01     -145876.92    
      8900   1450.5354      101192.62      6724.9433      48.731617      2.3577398     -149389.53     -145956.46    
      9000   1402.9372      9218.9541      6724.9433      48.731617      2.3577398     -149482.77     -146162.35    
      9100   1400.9201      53638.535      6724.9433      48.731617      2.3577398     -149543.46     -146227.81    
      9200   1386.7161      9288.5567      6724.9433      48.731617      2.3577398     -149517.12     -146235.09    
      9300   1443.1551     -16484.083      6724.9433      48.731617      2.3577398     -149540        -146124.39    
      9400   1420.2803      27901.039      6724.9433      48.731617      2.3577398     -149258.84     -145897.37    
      9500   1416.7124      56166.168      6724.9433      48.731617      2.3577398     -149264.16     -145911.14    
      9600   1407.9062     -5597.8905      6724.9433      48.731617      2.3577398     -149363.58     -146031.4     
      9700   1418.8555      3719.572       6724.9433      48.731617      2.3577398     -149467.72     -146109.63    
      9800   1342.5567     -19413.585      6724.9433      48.731617      2.3577398     -149367.25     -146189.73    
      9900   1437.1845      3751.4553      6724.9433      48.731617      2.3577398     -149656.23     -146254.76    
     10000   1347.0844      85971.678      6724.9433      48.731617      2.3577398     -149584.92     -146396.69    
     10100   1357.7574      70383.976      6724.9433      48.731617      2.3577398     -149740.35     -146526.86    
     10200   1410.4932     -1800.3267      6724.9433      48.731617      2.3577398     -149654.9      -146316.59    
     10300   1383.1277     -23134.081      6724.9433      48.731617      2.3577398     -149451.67     -146178.14    
     10400   1440.0104      41213.289      6724.9433      48.731617      2.3577398     -149549.27     -146141.11    
     10500   1390.8415      28511.239      6724.9433      48.731617      2.3577398     -149478.37     -146186.58    
     10600   1365.6664      51734.562      6724.9433      48.731617      2.3577398     -149479.09     -146246.88    
     10700   1398.3577      2346.3492      6724.9433      48.731617      2.3577398     -149594.2      -146284.62    
     10800   1442.2583      11541.821      6724.9433      48.731617      2.3577398     -149578.62     -146165.13    
     10900   1413.733       51789.614      6724.9433      48.731617      2.3577398     -149362.71     -146016.73    
     11000   1413.0342      70793.482      6724.9433      48.731617      2.3577398     -149382.03     -146037.71    
     11100   1351.8907      50793.469      6724.9433      48.731617      2.3577398     -149485.11     -146285.51    
     11200   1431.4412      24635.429      6724.9433      48.731617      2.3577398     -149705.19     -146317.31    
     11300   1358.9884      21731.601      6724.9433      48.731617      2.3577398     -149463.68     -146247.28    
     11400   1410.4545     -60387.405      6724.9433      48.731617      2.3577398     -149529.13     -146190.92    
     11500   1412.7224      29065.474      6724.9433      48.731617      2.3577398     -149523.89     -146180.31    
     11600   1404.9457      14767.731      6724.9433      48.731617      2.3577398     -149462.57     -146137.4     
     11700   1457.149       7605.6333      6724.9433      48.731617      2.3577398     -149575.48     -146126.75    
     11800   1351.5959      7606.0539      6724.9433      48.731617      2.3577398     -149437.47     -146238.56    
     11900   1333.3556     -26683.127      6724.9433      48.731617      2.3577398     -149450.56     -146294.82    
     12000   1418.16       -2959.2846      6724.9433      48.731617      2.3577398     -149557        -146200.55    
     12100   1431.4683      46281.946      6724.9433      48.731617      2.3577398     -149393.77     -146005.83    
     12200   1458.5235      74688.866      6724.9433      48.731617      2.3577398     -149326.76     -145874.79    
     12300   1410.6831      53379.334      6724.9433      48.731617      2.3577398     -149324.62     -145985.87    
     12400   1374.5865     -10437.143      6724.9433      48.731617      2.3577398     -149341.47     -146088.14    
     12500   1392.2552      23184.35       6724.9433      48.731617      2.3577398     -149451.99     -146156.86    
     12600   1395.609      -8387.6546      6724.9433      48.731617      2.3577398     -149602.3      -146299.22    
     12700   1345.404      -8768.8651      6724.9433      48.731617      2.3577398     -149552.1      -146367.84    
     12800   1407.3458      52669.067      6724.9433      48.731617      2.3577398     -149554.36     -146223.51    
     12900   1440.2989      17862.766      6724.9433      48.731617      2.3577398     -149377.98     -145969.13    
     13000   1420.5564      81063.264      6724.9433      48.731617      2.3577398     -149386.05     -146023.93    
     13100   1470.5873      70844.065      6724.9433      48.731617      2.3577398     -149606.86     -146126.33    
     13200   1394.6444     -16786.063      6724.9433      48.731617      2.3577398     -149621.11     -146320.32    
     13300   1398.6104     -36979.451      6724.9433      48.731617      2.3577398     -149665.43     -146355.25    
     13400   1367.9033     -36443.28       6724.9433      48.731617      2.3577398     -149540.07     -146302.57    
     13500   1425.7475     -19469.676      6724.9433      48.731617      2.3577398     -149574.23     -146199.82    
     13600   1378.7235      125194.72      6724.9433      48.731617      2.3577398     -149393.13     -146130.02    
     13700   1429.0798      122245.34      6724.9433      48.731617      2.3577398     -149449.49     -146067.2     
     13800   1375.8138      29163.942      6724.9433      48.731617      2.3577398     -149345.7      -146089.47    
     13900   1480.9241      52010.06       6724.9433      48.731617      2.3577398     -149628.72     -146123.73    
     14000   1393.5177      2253.2111      6724.9433      48.731617      2.3577398     -149562.55     -146264.42    
     14100   1359.1337     -19406.2        6724.9433      48.731617      2.3577398     -149568.28     -146351.54    
     14200   1347.0459     -12821.568      6724.9433      48.731617      2.3577398     -149546.56     -146358.42    
     14300   1387.5446      43470.663      6724.9433      48.731617      2.3577398     -149478.59     -146194.6     
     14400   1404.4964      148750.93      6724.9433      48.731617      2.3577398     -149368.43     -146044.32    
     14500   1503.5246      2432.6741      6724.9433      48.731617      2.3577398     -149616.49     -146058       
     14600   1417.4513     -7942.1122      6724.9433      48.731617      2.3577398     -149640.52     -146285.75    
     14700   1333.7588      25133.333      6724.9433      48.731617      2.3577398     -149551.89     -146395.2     
     14800   1359.494       53539.17       6724.9433      48.731617      2.3577398     -149569.52     -146351.92    
     14900   1484.6474      38114.725      6724.9433      48.731617      2.3577398     -149704.42     -146190.61    
     15000   1428.5295      22645.713      6724.9433      48.731617      2.3577398     -149464.8      -146083.8     
     15100   1412.9755      56515.509      6724.9433      48.731617      2.3577398     -149428.39     -146084.22    
     15200   1369.6682      37174.278      6724.9433      48.731617      2.3577398     -149382.6      -146140.92    
     15300   1427.5991     -8357.4432      6724.9433      48.731617      2.3577398     -149519.94     -146141.15    
     15400   1450.0647      53468.141      6724.9433      48.731617      2.3577398     -149631.89     -146199.93    
     15500   1376.52        45455.643      6724.9433      48.731617      2.3577398     -149634.98     -146377.08    
     15600   1360.3297      38563.799      6724.9433      48.731617      2.3577398     -149660.57     -146440.99    
     15700   1452.6004     -14440          6724.9433      48.731617      2.3577398     -149648.18     -146210.21    
     15800   1416.0573      79770.906      6724.9433      48.731617      2.3577398     -149461.06     -146109.59    
     15900   1440.3764      9540.93        6724.9433      48.731617      2.3577398     -149553.16     -146144.13    
     16000   1350.501      -12695.191      6724.9433      48.731617      2.3577398     -149458.88     -146262.56    
     16100   1353.0651      34453.938      6724.9433      48.731617      2.3577398     -149596.65     -146394.26    
     16200   1374.1387     -11105.066      6724.9433      48.731617      2.3577398     -149614.23     -146361.97    
     16300   1382.1766      55590.421      6724.9433      48.731617      2.3577398     -149365.49     -146094.2     
     16400   1425.4394      59705.321      6724.9433      48.731617      2.3577398     -149349.31     -145975.63    
     16500   1409.4234      16896.122      6724.9433      48.731617      2.3577398     -149360.41     -146024.64    
     16600   1394.6922     -8142.4124      6724.9433      48.731617      2.3577398     -149539.61     -146238.7     
     16700   1381.3809      48369.156      6724.9433      48.731617      2.3577398     -149574.82     -146305.41    
     16800   1351.9582      24075.014      6724.9433      48.731617      2.3577398     -149451.65     -146251.89    
     16900   1408.9804      25881.403      6724.9433      48.731617      2.3577398     -149455.09     -146120.37    
     17000   1469.0757      37776.84       6724.9433      48.731617      2.3577398     -149460.68     -145983.73    
     17100   1408.6981      37315.499      6724.9433      48.731617      2.3577398     -149379.85     -146045.8     
     17200   1381.2139      2052.5718      6724.9433      48.731617      2.3577398     -149383.15     -146114.15    
     17300   1357.9178      27703.575      6724.9433      48.731617      2.3577398     -149433.2      -146219.33    
     17400   1319.9235      17539.85       6724.9433      48.731617      2.3577398     -149426.98     -146303.03    
     17500   1382.2808     -3619.053       6724.9433      48.731617      2.3577398     -149469.75     -146198.22    
     17600   1440.6243      29042.456      6724.9433      48.731617      2.3577398     -149396.15     -145986.54    
     17700   1408.7463     -18917.66       6724.9433      48.731617      2.3577398     -149404.08     -146069.92    
     17800   1411.9101      32920.781      6724.9433      48.731617      2.3577398     -149525.88     -146184.22    
     17900   1392.8091      8217.5696      6724.9433      48.731617      2.3577398     -149523.33     -146226.89    
     18000   1347.443       37702.664      6724.9433      48.731617      2.3577398     -149402.53     -146213.45    
     18100   1403.0507      59214.886      6724.9433      48.731617      2.3577398     -149442.78     -146122.09    
     18200   1365.1166      14319.287      6724.9433      48.731617      2.3577398     -149194.82     -145963.91    
     18300   1472.929      -15746.887      6724.9433      48.731617      2.3577398     -149237.45     -145751.38    
     18400   1480.3593      31242.452      6724.9433      48.731617      2.3577398     -149390.62     -145886.96    
     18500   1463.0797      72322.957      6724.9433      48.731617      2.3577398     -149608.95     -146146.19    
     18600   1376.8393      33720.135      6724.9433      48.731617      2.3577398     -149525.66     -146267.01    
     18700   1354.0514     -11709.44       6724.9433      48.731617      2.3577398     -149510.13     -146305.41    
     18800   1389.8685      14608.794      6724.9433      48.731617      2.3577398     -149521.7      -146232.21    
     18900   1435.7088     -13013.531      6724.9433      48.731617      2.3577398     -149456.23     -146058.25    
     19000   1463.4503      34499.632      6724.9433      48.731617      2.3577398     -149420.76     -145957.12    
     19100   1398.2691      18165.734      6724.9433      48.731617      2.3577398     -149483.94     -146174.57    
     19200   1357.7733      34049.972      6724.9433      48.731617      2.3577398     -149538.94     -146325.41    
     19300   1362.8569      17195.167      6724.9433      48.731617      2.3577398     -149484.85     -146259.29    
     19400   1413.1477      132485.86      6724.9433      48.731617      2.3577398     -149404.91     -146060.32    
     19500   1480.9977      5069.7473      6724.9433      48.731617      2.3577398     -149487.28     -145982.11    
     19600   1454.6546      10072.851      6724.9433      48.731617      2.3577398     -149491.2      -146048.38    
     19700   1465.3471      50579.708      6724.9433      48.731617      2.3577398     -149744.26     -146276.13    
     19800   1371.8121     -5219.5856      6724.9433      48.731617      2.3577398     -149555.77     -146309.02    
     19900   1363.5793      17501.333      6724.9433      48.731617      2.3577398     -149485.9      -146258.63    
     20000   1422.3226      26390.246      6724.9433      48.731617      2.3577398     -149544.84     -146178.54    
     20100   1448.5839     -45670.849      6724.9433      48.731617      2.3577398     -149474.29     -146045.84    
     20200   1471.949      -34173.363      6724.9433      48.731617      2.3577398     -149402.93     -145919.18    
     20300   1373.5611      27716.104      6724.9433      48.731617      2.3577398     -149292.78     -146041.89    
     20400   1374.2018      73313.633      6724.9433      48.731617      2.3577398     -149483.11     -146230.7     
     20500   1359.7389      74839.788      6724.9433      48.731617      2.3577398     -149494.52     -146276.34    
     20600   1363.592       9844.6177      6724.9433      48.731617      2.3577398     -149447.82     -146220.52    
     20700   1391.7347      23052.606      6724.9433      48.731617      2.3577398     -149364.61     -146070.7     
     20800   1457.6027      36551.354      6724.9433      48.731617      2.3577398     -149251.13     -145801.33    
     20900   1445.3359      5116.8021      6724.9433      48.731617      2.3577398     -149130.54     -145709.77    
     21000   1446.0004      101210.76      6724.9433      48.731617      2.3577398     -149326.86     -145904.52    
     21100   1399.9378      3997.2894      6724.9433      48.731617      2.3577398     -149399.15     -146085.83    
     21200   1369.4147     -18711.931      6724.9433      48.731617      2.3577398     -149466.65     -146225.57    
     21300   1313.4048      17650.637      6724.9433      48.731617      2.3577398     -149436.29     -146327.77    
     21400   1434.0128      22546.122      6724.9433      48.731617      2.3577398     -149643.06     -146249.09    
     21500   1479.7148     -26271.213      6724.9433      48.731617      2.3577398     -149556.14     -146054       
     21600   1404.982      -20653.836      6724.9433      48.731617      2.3577398     -149193.44     -145868.18    
     21700   1463.834       29023.929      6724.9433      48.731617      2.3577398     -149366.84     -145902.29    
     21800   1415.4935      58711.221      6724.9433      48.731617      2.3577398     -149554.6      -146204.46    
     21900   1298.1926      61164.523      6724.9433      48.731617      2.3577398     -149377.45     -146304.93    
     22000   1404.263       27026.141      6724.9433      48.731617      2.3577398     -149558.14     -146234.58    
     22100   1431.9996      22049.128      6724.9433      48.731617      2.3577398     -149477.31     -146088.1     
     22200   1463.8139     -2794.8774      6724.9433      48.731617      2.3577398     -149524.86     -146060.36    
     22300   1398.826       63583.309      6724.9433      48.731617      2.3577398     -149620.56     -146309.87    
     22400   1342.0039      35995.191      6724.9433      48.731617      2.3577398     -149571.82     -146395.61    
     22500   1363.5394     -49149.321      6724.9433      48.731617      2.3577398     -149552.65     -146325.48    
     22600   1450.845       53542.916      6724.9433      48.731617      2.3577398     -149603.97     -146170.16    
     22700   1458.2891      21030.83       6724.9433      48.731617      2.3577398     -149546.96     -146095.54    
     22800   1368.3594      73499.179      6724.9433      48.731617      2.3577398     -149411.99     -146173.41    
     22900   1349.1626      12148.457      6724.9433      48.731617      2.3577398     -149647.85     -146454.7     
     23000   1316.5746      54391.28       6724.9433      48.731617      2.3577398     -149576.27     -146460.25    
     23100   1427.1309      14594.056      6724.9433      48.731617      2.3577398     -149620.59     -146242.91    
     23200   1437.8334      24202.429      6724.9433      48.731617      2.3577398     -149508.15     -146105.14    
     23300   1390.6756     -16535.849      6724.9433      48.731617      2.3577398     -149372.02     -146080.62    
     23400   1416.7046      73812.625      6724.9433      48.731617      2.3577398     -149492.19     -146139.18    
     23500   1370.5911      35546.09       6724.9433      48.731617      2.3577398     -149601.84     -146357.98    
     23600   1306.147       59389.279      6724.9433      48.731617      2.3577398     -149556.12     -146464.78    
     23700   1428.3396     -16512.876      6724.9433      48.731617      2.3577398     -149708.02     -146327.48    
     23800   1367.0914      14318.254      6724.9433      48.731617      2.3577398     -149481.85     -146246.27    
     23900   1413.158       15497.36       6724.9433      48.731617      2.3577398     -149527.86     -146183.25    
     24000   1410.0428      5543.6646      6724.9433      48.731617      2.3577398     -149459.43     -146122.19    
     24100   1425.0586      45923.243      6724.9433      48.731617      2.3577398     -149437.95     -146065.17    
     24200   1434.7105     -23735.543      6724.9433      48.731617      2.3577398     -149501.45     -146105.83    
     24300   1407.0584     -15480.652      6724.9433      48.731617      2.3577398     -149633.47     -146303.29    
     24400   1365.4757      26272.082      6724.9433      48.731617      2.3577398     -149643.07     -146411.31    
     24500   1397.0983      38436.901      6724.9433      48.731617      2.3577398     -149605.26     -146298.66    
     24600   1427.2072      68364.991      6724.9433      48.731617      2.3577398     -149509.53     -146131.67    
     24700   1415.3244      71462.249      6724.9433      48.731617      2.3577398     -149449.94     -146100.2     
     24800   1368.3708      63941.545      6724.9433      48.731617      2.3577398     -149349.63     -146111.02    
     24900   1380.6332     -3847.1553      6724.9433      48.731617      2.3577398     -149404.66     -146137.03    
     25000   1373.2708      43642.45       6724.9433      48.731617      2.3577398     -149451.83     -146201.63    
     25100   1360.5603      81313.449      6724.9433      48.731617      2.3577398     -149607.4      -146387.27    
     25200   1372.0161      4126.9597      6724.9433      48.731617      2.3577398     -149731.71     -146484.47    
     25300   1390.135       37235.778      6724.9433      48.731617      2.3577398     -149651.45     -146361.33    
     25400   1429.4476     -39031.085      6724.9433      48.731617      2.3577398     -149512.77     -146129.61    
     25500   1415.9556      20916.694      6724.9433      48.731617      2.3577398     -149489.45     -146138.22    
     25600   1405.0617      17070.413      6724.9433      48.731617      2.3577398     -149591.84     -146266.4     
     25700   1396.2338      55557.405      6724.9433      48.731617      2.3577398     -149653.14     -146348.59    
     25800   1379.3456      26275.85       6724.9433      48.731617      2.3577398     -149641.44     -146376.85    
     25900   1406.2892      8921.8691      6724.9433      48.731617      2.3577398     -149575.96     -146247.61    
     26000   1365.5407      22991.844      6724.9433      48.731617      2.3577398     -149301.77     -146069.86    
     26100   1388.097       70217.668      6724.9433      48.731617      2.3577398     -149309.61     -146024.31    
     26200   1455.4629      44193.56       6724.9433      48.731617      2.3577398     -149569.58     -146124.85    
     26300   1375.0482      8170.6474      6724.9433      48.731617      2.3577398     -149629.11     -146374.7     
     26400   1372.6346     -13449.43       6724.9433      48.731617      2.3577398     -149612.11     -146363.41    
     26500   1386.0766     -3723.2885      6724.9433      48.731617      2.3577398     -149494.74     -146214.22    
     26600   1398.8938      60072.609      6724.9433      48.731617      2.3577398     -149431.77     -146120.92    
     26700   1467.3101      49899.711      6724.9433      48.731617      2.3577398     -149549.3      -146076.53    
     26800   1372.7138      10684.105      6724.9433      48.731617      2.3577398     -149480.97     -146232.08    
     26900   1296.7109      11133.789      6724.9433      48.731617      2.3577398     -149511.71     -146442.71    
     27000   1349.7772      17012.782      6724.9433      48.731617      2.3577398     -149547.49     -146352.89    
     27100   1452.3763     -8008.2618      6724.9433      48.731617      2.3577398     -149622.08     -146184.65    
     27200   1424.8691      5333.9607      6724.9433      48.731617      2.3577398     -149531.06     -146158.73    
     27300   1371.4406      55514.515      6724.9433      48.731617      2.3577398     -149472.84     -146226.96    
     27400   1388.4359      27738.49       6724.9433      48.731617      2.3577398     -149561.38     -146275.29    
     27500   1377.5209      79526.179      6724.9433      48.731617      2.3577398     -149541.57     -146281.3     
     27600   1361.6446      520.06889      6724.9433      48.731617      2.3577398     -149476.32     -146253.63    
     27700   1413.2137      46264.463      6724.9433      48.731617      2.3577398     -149529.93     -146185.19    
     27800   1442.4759      75626.084      6724.9433      48.731617      2.3577398     -149499.2      -146085.2     
     27900   1451.1841     -16803.251      6724.9433      48.731617      2.3577398     -149462.7      -146028.09    
     28000   1429.6272      611.00257      6724.9433      48.731617      2.3577398     -149515.35     -146131.76    
     28100   1391.9549      32768.876      6724.9433      48.731617      2.3577398     -149627.16     -146332.73    
     28200   1374.0007      49940.537      6724.9433      48.731617      2.3577398     -149587.42     -146335.49    
     28300   1414.546       39526.777      6724.9433      48.731617      2.3577398     -149511.14     -146163.25    
     28400   1460.6922      51340.094      6724.9433      48.731617      2.3577398     -149500        -146042.89    
     28500   1419.9435      43974.624      6724.9433      48.731617      2.3577398     -149483.65     -146122.98    
     28600   1386.0368      236.67388      6724.9433      48.731617      2.3577398     -149522.21     -146241.79    
     28700   1351.8379      47936.848      6724.9433      48.731617      2.3577398     -149558.59     -146359.11    
     28800   1382.0265      20368.6        6724.9433      48.731617      2.3577398     -149608.12     -146337.19    
     28900   1400.2525      1996.4381      6724.9433      48.731617      2.3577398     -149433.06     -146118.99    
     29000   1414.2995      8073.7991      6724.9433      48.731617      2.3577398     -149375.81     -146028.5     
     29100   1329.7677      73347.524      6724.9433      48.731617      2.3577398     -149229.71     -146082.46    
     29200   1406.1038     -4688.817       6724.9433      48.731617      2.3577398     -149510        -146182.08    
     29300   1341.2173      59819.848      6724.9433      48.731617      2.3577398     -149486.43     -146312.08    
     29400   1381.3366      83305.822      6724.9433      48.731617      2.3577398     -149577.46     -146308.17    
     29500   1425.6626      46391.023      6724.9433      48.731617      2.3577398     -149542.25     -146168.04    
     29600   1466.2474      3330.9464      6724.9433      48.731617      2.3577398     -149470.66     -146000.4     
     29700   1392.3998     -16059.804      6724.9433      48.731617      2.3577398     -149416.72     -146121.24    
     29800   1409.8966      59202.396      6724.9433      48.731617      2.3577398     -149627.42     -146290.53    
     29900   1387.0138      41227.472      6724.9433      48.731617      2.3577398     -149617.4      -146334.67    
     30000   1425.7798      52561.292      6724.9433      48.731617      2.3577398     -149661.08     -146286.6     
     30100   1429.5123      14339.799      6724.9433      48.731617      2.3577398     -149580.37     -146197.06    
     30200   1358.2353     -56666.053      6724.9433      48.731617      2.3577398     -149363.01     -146148.39    
     30300   1391.4486     -55897.873      6724.9433      48.731617      2.3577398     -149497.32     -146204.09    
     30400   1327.3964      49640.021      6724.9433      48.731617      2.3577398     -149624.77     -146483.14    
     30500   1286.184       73060.436      6724.9433      48.731617      2.3577398     -149442.52     -146398.42    
     30600   1416.3692      78564.564      6724.9433      48.731617      2.3577398     -149529.37     -146177.16    
     30700   1393.846      -23433.971      6724.9433      48.731617      2.3577398     -149414.67     -146115.76    
     30800   1448.2778      45016.086      6724.9433      48.731617      2.3577398     -149548.55     -146120.82    
     30900   1343.774       68095.572      6724.9433      48.731617      2.3577398     -149508.08     -146327.68    
     31000   1360.578      -20512.974      6724.9433      48.731617      2.3577398     -149586.5      -146366.34    
     31100   1414.633       67207.435      6724.9433      48.731617      2.3577398     -149543.29     -146195.19    
     31200   1435.2993     -8507.6561      6724.9433      48.731617      2.3577398     -149508.86     -146111.84    
     31300   1404.8922     -26051.501      6724.9433      48.731617      2.3577398     -149495.49     -146170.45    
     31400   1399.4099      115381.54      6724.9433      48.731617      2.3577398     -149611.53     -146299.46    
     31500   1386.6455     -21617.263      6724.9433      48.731617      2.3577398     -149663.63     -146381.77    
     31600   1394.6788      22792.542      6724.9433      48.731617      2.3577398     -149605.06     -146304.19    
     31700   1462.3433      66475.335      6724.9433      48.731617      2.3577398     -149484.33     -146023.31    
     31800   1351.9016     -1339.4228      6724.9433      48.731617      2.3577398     -149202.78     -146003.15    
     31900   1364.8119      38901.765      6724.9433      48.731617      2.3577398     -149320.38     -146090.2     
     32000   1377.842       24493.82       6724.9433      48.731617      2.3577398     -149520.98     -146259.95    
     32100   1385.755       42679.99       6724.9433      48.731617      2.3577398     -149605.3      -146325.55    
     32200   1430.8331      34185.755      6724.9433      48.731617      2.3577398     -149461.27     -146074.82    
     32300   1409.8975      19036.032      6724.9433      48.731617      2.3577398     -149281.42     -145944.53    
     32400   1402.8017      35461.29       6724.9433      48.731617      2.3577398     -149389.96     -146069.86    
     32500   1417.0664      45218.948      6724.9433      48.731617      2.3577398     -149580.65     -146226.79    
     32600   1394.8262      24863.833      6724.9433      48.731617      2.3577398     -149595.4      -146294.18    
     32700   1356.8173     -12648.009      6724.9433      48.731617      2.3577398     -149491.88     -146280.61    
     32800   1433.0979      56466.809      6724.9433      48.731617      2.3577398     -149533.1      -146141.3     
     32900   1482.911       8412.9739      6724.9433      48.731617      2.3577398     -149362        -145852.3     
     33000   1506.7086      64646.72       6724.9433      48.731617      2.3577398     -149447.31     -145881.29    
     33100   1430.9227      53418.218      6724.9433      48.731617      2.3577398     -149433.99     -146047.34    
     33200   1403.8401      49599.235      6724.9433      48.731617      2.3577398     -149483.7      -146161.14    
     33300   1356.5328     -6527.2363      6724.9433      48.731617      2.3577398     -149430.67     -146220.08    
     33400   1373.0365     -15403.423      6724.9433      48.731617      2.3577398     -149563.32     -146313.67    
     33500   1335.3067      57819.13       6724.9433      48.731617      2.3577398     -149628.93     -146468.58    
     33600   1350.2045      40373.964      6724.9433      48.731617      2.3577398     -149639.04     -146443.42    
     33700   1426.643       89455.008      6724.9433      48.731617      2.3577398     -149552.01     -146175.49    
     33800   1428.8484      41241.756      6724.9433      48.731617      2.3577398     -149472.96     -146091.21    
     33900   1398.9111      36490.123      6724.9433      48.731617      2.3577398     -149355.75     -146044.86    
     34000   1382.1617      7900.0987      6724.9433      48.731617      2.3577398     -149396.59     -146125.34    
     34100   1330.9665      33016.471      6724.9433      48.731617      2.3577398     -149508.25     -146358.17    
     34200   1321.272       55429.523      6724.9433      48.731617      2.3577398     -149523.58     -146396.45    
     34300   1405.9144      81497.276      6724.9433      48.731617      2.3577398     -149619.1      -146291.63    
     34400   1371.2583      39708.727      6724.9433      48.731617      2.3577398     -149442.99     -146197.55    
     34500   1399.1399      8517.6796      6724.9433      48.731617      2.3577398     -149469.68     -146158.24    
     34600   1398.7364      24833.14       6724.9433      48.731617      2.3577398     -149452.27     -146141.79    
     34700   1392.1947      77663.698      6724.9433      48.731617      2.3577398     -149455.34     -146160.35    
     34800   1380.7519      3079.4019      6724.9433      48.731617      2.3577398     -149471.42     -146203.51    
     34900   1370.0599      14107.189      6724.9433      48.731617      2.3577398     -149499.71     -146257.11    
     35000   1381.6326      49455.808      6724.9433      48.731617      2.3577398     -149495.33     -146225.34    
     35100   1513.9173      144851.3       6724.9433      48.731617      2.3577398     -149682.37     -146099.29    
     35200   1463.6597      43811.166      6724.9433      48.731617      2.3577398     -149503.76     -146039.62    
     35300   1393.3231     -34454.183      6724.9433      48.731617      2.3577398     -149484.11     -146186.44    
     35400   1458.6005      25053.014      6724.9433      48.731617      2.3577398     -149805.82     -146353.66    
     35500   1337.0198      31858.54       6724.9433      48.731617      2.3577398     -149541.81     -146377.4     
     35600   1421.3598      112258.03      6724.9433      48.731617      2.3577398     -149457.43     -146093.4     
     35700   1464.7486      89368.289      6724.9433      48.731617      2.3577398     -149488.73     -146022.01    
     35800   1380.0028      24296.45       6724.9433      48.731617      2.3577398     -149433.84     -146167.7     
     35900   1412.5741      8569.9798      6724.9433      48.731617      2.3577398     -149601.4      -146258.18    
     36000   1336.1403      33842.985      6724.9433      48.731617      2.3577398     -149517.98     -146355.65    
     36100   1316.3206      60258.556      6724.9433      48.731617      2.3577398     -149476.73     -146361.31    
     36200   1420.529       26378.146      6724.9433      48.731617      2.3577398     -149499.75     -146137.7     
     36300   1479.781       65963.246      6724.9433      48.731617      2.3577398     -149500.45     -145998.16    
     36400   1414.7689      20981.842      6724.9433      48.731617      2.3577398     -149420.61     -146072.19    
     36500   1377.3736      28804.944      6724.9433      48.731617      2.3577398     -149531.64     -146271.72    
     36600   1405.9489      51368.582      6724.9433      48.731617      2.3577398     -149636.9      -146309.35    
     36700   1380.889       10750.818      6724.9433      48.731617      2.3577398     -149533.98     -146265.74    
     36800   1384.6249     -42779.068      6724.9433      48.731617      2.3577398     -149452        -146174.92    
     36900   1409.9163      97434.142      6724.9433      48.731617      2.3577398     -149279.35     -145942.41    
     37000   1503.0055      26468.845      6724.9433      48.731617      2.3577398     -149410.62     -145853.36    
     37100   1456.4336      53069.079      6724.9433      48.731617      2.3577398     -149496.63     -146049.59    
     37200   1427.4936     -15818.004      6724.9433      48.731617      2.3577398     -149524.52     -146145.98    
     37300   1440.0541      31516.104      6724.9433      48.731617      2.3577398     -149626.56     -146218.3     
     37400   1402.9531      30452.697      6724.9433      48.731617      2.3577398     -149621.82     -146301.36    
     37500   1362.5573      9739.6087      6724.9433      48.731617      2.3577398     -149639.39     -146414.54    
     37600   1343.2236      25194.308      6724.9433      48.731617      2.3577398     -149598.83     -146419.74    
     37700   1355.0556      296.57532      6724.9433      48.731617      2.3577398     -149388.4      -146181.31    
     37800   1445.743       53531.384      6724.9433      48.731617      2.3577398     -149467.76     -146046.03    
     37900   1442.0169      52264.151      6724.9433      48.731617      2.3577398     -149520        -146107.09    
     38000   1352.299       60291.967      6724.9433      48.731617      2.3577398     -149444.55     -146243.98    
     38100   1374.7767      108617.86      6724.9433      48.731617      2.3577398     -149620.7      -146366.93    
     38200   1287.0734      52680.186      6724.9433      48.731617      2.3577398     -149544.8      -146498.6     
     38300   1366.0998      8598.766       6724.9433      48.731617      2.3577398     -149652.76     -146419.52    
     38400   1399.0583     -24270.033      6724.9433      48.731617      2.3577398     -149499.36     -146188.12    
     38500   1440.8533     -18244.148      6724.9433      48.731617      2.3577398     -149526.5      -146116.34    
     38600   1405.4994      43593.431      6724.9433      48.731617      2.3577398     -149482.37     -146155.89    
     38700   1324.7513      35685.634      6724.9433      48.731617      2.3577398     -149481.63     -146346.26    
     38800   1338.9564      65107.645      6724.9433      48.731617      2.3577398     -149576.63     -146407.64    
     38900   1413.5754     -27931.608      6724.9433      48.731617      2.3577398     -149522.35     -146176.76    
     39000   1397.9582      25388.987      6724.9433      48.731617      2.3577398     -149330.59     -146021.95    
     39100   1429.7459      43455.445      6724.9433      48.731617      2.3577398     -149487.33     -146103.46    
     39200   1367.8748     -21271.978      6724.9433      48.731617      2.3577398     -149489.5      -146252.07    
     39300   1329.3916      57479.154      6724.9433      48.731617      2.3577398     -149434.43     -146288.07    
     39400   1381.3699      45118.57       6724.9433      48.731617      2.3577398     -149465.94     -146196.57    
     39500   1485.4183      10386.175      6724.9433      48.731617      2.3577398     -149451.72     -145936.08    
     39600   1464.7294     -2840.2885      6724.9433      48.731617      2.3577398     -149456.09     -145989.42    
     39700   1431.5115      7779.0557      6724.9433      48.731617      2.3577398     -149563.26     -146175.22    
     39800   1342.8519      12930.136      6724.9433      48.731617      2.3577398     -149458.89     -146280.68    
     39900   1349.7677      55624.714      6724.9433      48.731617      2.3577398     -149483.17     -146288.59    
     40000   1383.9972      16344.643      6724.9433      48.731617      2.3577398     -149474.24     -146198.64    
     40100   1462.4704      28407.969      6724.9433      48.731617      2.3577398     -149401.78     -145940.46    
     40200   1484.5079     -16003.3        6724.9433      48.731617      2.3577398     -149491.72     -145978.24    
     40300   1412.5533     -2062.4089      6724.9433      48.731617      2.3577398     -149469.45     -146126.27    
     40400   1433.9936      4838.6654      6724.9433      48.731617      2.3577398     -149615.72     -146221.79    
     40500   1396.0793      36394.269      6724.9433      48.731617      2.3577398     -149616.13     -146311.94    
     40600   1372.9961     -9260.8029      6724.9433      48.731617      2.3577398     -149639.89     -146390.34    
     40700   1388.4087      70383.266      6724.9433      48.731617      2.3577398     -149617.63     -146331.6     
     40800   1426.2427      66888.328      6724.9433      48.731617      2.3577398     -149428.15     -146052.58    
     40900   1399.2162      70279.567      6724.9433      48.731617      2.3577398     -149342.18     -146030.57    
     41000   1429.0022      44941.044      6724.9433      48.731617      2.3577398     -149571.01     -146188.9     
     41100   1358.5248     -26928.727      6724.9433      48.731617      2.3577398     -149537.46     -146322.16    
     41200   1379.6439      46131.837      6724.9433      48.731617      2.3577398     -149557.58     -146292.29    
     41300   1449.3146      34743.57       6724.9433      48.731617      2.3577398     -149571.59     -146141.4     
     41400   1442.3629      8599.5597      6724.9433      48.731617      2.3577398     -149258.47     -145844.73    
     41500   1487.2094     -4590.8078      6724.9433      48.731617      2.3577398     -149460.21     -145940.34    
     41600   1474.1062      17326.893      6724.9433      48.731617      2.3577398     -149623.4      -146134.54    
     41700   1385.9195      45710.251      6724.9433      48.731617      2.3577398     -149571.87     -146291.72    
     41800   1403.1462      92857.008      6724.9433      48.731617      2.3577398     -149627.43     -146306.51    
     41900   1395.0628     -17135.432      6724.9433      48.731617      2.3577398     -149500.39     -146198.61    
     42000   1415.7641      29834.128      6724.9433      48.731617      2.3577398     -149330.5      -145979.72    
     42100   1427.3222      71570.869      6724.9433      48.731617      2.3577398     -149310.17     -145932.04    
     42200   1373.4141      16890.109      6724.9433      48.731617      2.3577398     -149327.78     -146077.24    
     42300   1390.452       56615.209      6724.9433      48.731617      2.3577398     -149620.85     -146329.98    
     42400   1398.0924      6956.6079      6724.9433      48.731617      2.3577398     -149658.69     -146349.73    
     42500   1334.8849      7396.152       6724.9433      48.731617      2.3577398     -149440.01     -146280.66    
     42600   1428.9048      2629.9845      6724.9433      48.731617      2.3577398     -149493.91     -146112.03    
     42700   1394.8627      59289.362      6724.9433      48.731617      2.3577398     -149369.06     -146067.75    
     42800   1397.309      -7064.7274      6724.9433      48.731617      2.3577398     -149458.16     -146151.06    
     42900   1357.7979      22925.58       6724.9433      48.731617      2.3577398     -149552.37     -146338.78    
     43000   1391.4176      11515.032      6724.9433      48.731617      2.3577398     -149731.82     -146438.66    
     43100   1368.1469      35321.736      6724.9433      48.731617      2.3577398     -149528.26     -146290.18    
     43200   1452.771       92234.614      6724.9433      48.731617      2.3577398     -149527.5      -146089.13    
     43300   1460.1395     -27851.935      6724.9433      48.731617      2.3577398     -149595.82     -146140.02    
     43400   1443.0474      27266.336      6724.9433      48.731617      2.3577398     -149682.97     -146267.62    
     43500   1362.0691      13271.998      6724.9433      48.731617      2.3577398     -149509.92     -146286.22    
     43600   1392.7518     -18872.237      6724.9433      48.731617      2.3577398     -149496.89     -146200.57    
     43700   1416.5512      1838.9119      6724.9433      48.731617      2.3577398     -149344.42     -145991.78    
     43800   1471.8541      47565.176      6724.9433      48.731617      2.3577398     -149440.26     -145956.73    
     43900   1419.7229     -18282.964      6724.9433      48.731617      2.3577398     -149523.65     -146163.5     
     44000   1393.3454      32575.63       6724.9433      48.731617      2.3577398     -149575.08     -146277.36    
     44100   1485.0211      6444.3984      6724.9433      48.731617      2.3577398     -149774.86     -146260.17    
     44200   1463.235       36681.759      6724.9433      48.731617      2.3577398     -149727.21     -146264.07    
     44300   1396.8623      37326.703      6724.9433      48.731617      2.3577398     -149638.38     -146332.34    
     44400   1390.0338      4488.9271      6724.9433      48.731617      2.3577398     -149647.7      -146357.82    
     44500   1377.7335      20751.305      6724.9433      48.731617      2.3577398     -149478.54     -146217.77    
     44600   1458.3201      49615.277      6724.9433      48.731617      2.3577398     -149495.2      -146043.7     
     44700   1437.4789      25142.363      6724.9433      48.731617      2.3577398     -149491.43     -146089.26    
     44800   1332.7634      53424.403      6724.9433      48.731617      2.3577398     -149442.73     -146288.4     
     44900   1446.1974     -17539.622      6724.9433      48.731617      2.3577398     -149726.66     -146303.85    
     45000   1414.6636      39559.263      6724.9433      48.731617      2.3577398     -149619.05     -146270.88    
     45100   1447.5101      61337.49       6724.9433      48.731617      2.3577398     -149583.99     -146158.08    
     45200   1455.1374      52170.26       6724.9433      48.731617      2.3577398     -149436.06     -145992.1     
     45300   1497.091       28364.564      6724.9433      48.731617      2.3577398     -149357.22     -145813.96    
     45400   1438.5707      46515.377      6724.9433      48.731617      2.3577398     -149279.61     -145874.85    
     45500   1406.983       48853.745      6724.9433      48.731617      2.3577398     -149481.09     -146151.09    
     45600   1388.8171      43848.055      6724.9433      48.731617      2.3577398     -149551.65     -146264.65    
     45700   1376.1586      48937.488      6724.9433      48.731617      2.3577398     -149651.69     -146394.65    
     45800   1360.3138     -16447.611      6724.9433      48.731617      2.3577398     -149643.61     -146424.07    
     45900   1378.5502      4815.1455      6724.9433      48.731617      2.3577398     -149496.09     -146233.38    
     46000   1459.7336     -16870.396      6724.9433      48.731617      2.3577398     -149518.97     -146064.12    
     46100   1433.4802      173.65597      6724.9433      48.731617      2.3577398     -149542.87     -146150.16    
     46200   1423.4987      112004.05      6724.9433      48.731617      2.3577398     -149634.34     -146265.26    
     46300   1418.4141      52147.783      6724.9433      48.731617      2.3577398     -149641.04     -146283.99    
     46400   1422.8822      72903.389      6724.9433      48.731617      2.3577398     -149527.19     -146159.57    
     46500   1462.3955     -11306.23       6724.9433      48.731617      2.3577398     -149304.99     -145843.85    
     46600   1357.043      -39202.387      6724.9433      48.731617      2.3577398     -149105.89     -145894.09    
     46700   1384.8008      25105.979      6724.9433      48.731617      2.3577398     -149362.93     -146085.43    
     46800   1430.5123      81897.483      6724.9433      48.731617      2.3577398     -149582.1      -146196.42    
     46900   1376.3674      71551.783      6724.9433      48.731617      2.3577398     -149463.96     -146206.43    
     47000   1454.8731      36180.084      6724.9433      48.731617      2.3577398     -149577.91     -146134.57    
     47100   1492.8962     -6487.8092      6724.9433      48.731617      2.3577398     -149626.99     -146093.66    
     47200   1388.7096     -20133.533      6724.9433      48.731617      2.3577398     -149480.65     -146193.9     
     47300   1431.6642      35556.342      6724.9433      48.731617      2.3577398     -149740.19     -146351.78    
     47400   1366.2383      34699.604      6724.9433      48.731617      2.3577398     -149628.42     -146394.86    
     47500   1329.6998      52058.446      6724.9433      48.731617      2.3577398     -149362.82     -146215.74    
     47600   1443.6565      16321.388      6724.9433      48.731617      2.3577398     -149458.86     -146042.07    
     47700   1420.175      -5307.2028      6724.9433      48.731617      2.3577398     -149468.69     -146107.47    
     47800   1427.9923      67987.481      6724.9433      48.731617      2.3577398     -149618.41     -146238.69    
     47900   1352.8876      59318.906      6724.9433      48.731617      2.3577398     -149496.94     -146294.98    
     48000   1400.3469     -36633.167      6724.9433      48.731617      2.3577398     -149558.3      -146244.01    
     48100   1426.3809      13842.668      6724.9433      48.731617      2.3577398     -149368.05     -145992.14    
     48200   1462.6803      8454.8757      6724.9433      48.731617      2.3577398     -149406.88     -145945.06    
     48300   1418.9216      17773.897      6724.9433      48.731617      2.3577398     -149495.37     -146137.12    
     48400   1386.5663      8583.2112      6724.9433      48.731617      2.3577398     -149555.21     -146273.54    
     48500   1338.181       9928.367       6724.9433      48.731617      2.3577398     -149477.84     -146310.68    
     48600   1391.7396      34747.186      6724.9433      48.731617      2.3577398     -149571.83     -146277.91    
     48700   1461.7199      38464.059      6724.9433      48.731617      2.3577398     -149516.43     -146056.89    
     48800   1493.0094     -12785.95       6724.9433      48.731617      2.3577398     -149460.12     -145926.52    
     48900   1425.6546      72136.785      6724.9433      48.731617      2.3577398     -149433.62     -146059.43    
     49000   1393.4763      34709.724      6724.9433      48.731617      2.3577398     -149459.3      -146161.27    
     49100   1397.0848      40959.035      6724.9433      48.731617      2.3577398     -149523.64     -146217.07    
     49200   1384.802       35974.299      6724.9433      48.731617      2.3577398     -149538.13     -146260.63    
     49300   1371.0397      45337.551      6724.9433      48.731617      2.3577398     -149490.18     -146245.25    
     49400   1412.0073      9989.6878      6724.9433      48.731617      2.3577398     -149536.09     -146194.2     
     49500   1451.9195      2938.3146      6724.9433      48.731617      2.3577398     -149506.75     -146070.4     
     49600   1416.219       35423.554      6724.9433      48.731617      2.3577398     -149337.53     -145985.67    
     49700   1408.2504      17998.607      6724.9433      48.731617      2.3577398     -149384.2      -146051.21    
     49800   1394.4682      51721.492      6724.9433      48.731617      2.3577398     -149591        -146290.62    
     49900   1320.238      -37779.692      6724.9433      48.731617      2.3577398     -149451.42     -146326.73    
     50000   1373.7906      19081.374      6724.9433      48.731617      2.3577398     -149462.1      -146210.67    
     50100   1388.2554      17685.451      6724.9433      48.731617      2.3577398     -149410.88     -146125.21    
     50200   1428.6875     -54420.355      6724.9433      48.731617      2.3577398     -149519.61     -146138.24    
     50300   1449.0325      44084.679      6724.9433      48.731617      2.3577398     -149639.11     -146209.6     
     50400   1376.0289      28928.211      6724.9433      48.731617      2.3577398     -149741.37     -146484.63    
     50500   1337.7911      51235.013      6724.9433      48.731617      2.3577398     -149572.2      -146405.96    
     50600   1419.3133      25752.757      6724.9433      48.731617      2.3577398     -149546.61     -146187.43    
     50700   1373.6127      59347.346      6724.9433      48.731617      2.3577398     -149332.22     -146081.21    
     50800   1451.5763      5091.3563      6724.9433      48.731617      2.3577398     -149467.1      -146031.56    
     50900   1455.5244      17660.982      6724.9433      48.731617      2.3577398     -149560.36     -146115.48    
     51000   1367.0912      93317.417      6724.9433      48.731617      2.3577398     -149572.97     -146337.39    
     51100   1333.8828      26305.873      6724.9433      48.731617      2.3577398     -149524.83     -146367.85    
     51200   1355.0593      12173.217      6724.9433      48.731617      2.3577398     -149439.49     -146232.39    
     51300   1489.8811      4672.922       6724.9433      48.731617      2.3577398     -149582.32     -146056.13    
     51400   1448.9791     -9918.9999      6724.9433      48.731617      2.3577398     -149510.2      -146080.81    
     51500   1456.734       51537.485      6724.9433      48.731617      2.3577398     -149607.66     -146159.91    
     51600   1381.1879      33679.968      6724.9433      48.731617      2.3577398     -149511.93     -146242.98    
     51700   1419.6574      20108.535      6724.9433      48.731617      2.3577398     -149643.16     -146283.16    
     51800   1370.574       23151.914      6724.9433      48.731617      2.3577398     -149600.52     -146356.69    
     51900   1388.8269      39903.008      6724.9433      48.731617      2.3577398     -149667.31     -146380.28    
     52000   1429.1757      58079.089      6724.9433      48.731617      2.3577398     -149627        -146244.48    
     52100   1445.3586      20254.757      6724.9433      48.731617      2.3577398     -149497.84     -146077.02    
     52200   1414.1397     -5069.4777      6724.9433      48.731617      2.3577398     -149360.58     -146013.65    
     52300   1407.9476      66163.578      6724.9433      48.731617      2.3577398     -149399.37     -146067.09    
     52400   1364.3499      63217.587      6724.9433      48.731617      2.3577398     -149554.35     -146325.26    
     52500   1406.2321      17112.053      6724.9433      48.731617      2.3577398     -149659.54     -146331.32    
     52600   1386.7347      4829.1875      6724.9433      48.731617      2.3577398     -149559.7      -146277.63    
     52700   1398.846      -5765.1991      6724.9433      48.731617      2.3577398     -149470.12     -146159.38    
     52800   1407.3327      32511.626      6724.9433      48.731617      2.3577398     -149409.43     -146078.6     
     52900   1425.3703     -46.125571      6724.9433      48.731617      2.3577398     -149418.13     -146044.61    
     53000   1452.2666      40192.565      6724.9433      48.731617      2.3577398     -149627.48     -146190.31    
     53100   1355.1489      29937.188      6724.9433      48.731617      2.3577398     -149568.8      -146361.49    
     53200   1387.7971      76719.896      6724.9433      48.731617      2.3577398     -149621.53     -146336.94    
     53300   1394.7286      64290.086      6724.9433      48.731617      2.3577398     -149484.9      -146183.91    
     53400   1406.4127     -30907.003      6724.9433      48.731617      2.3577398     -149342.81     -146014.16    
     53500   1470.4265     -26887.45       6724.9433      48.731617      2.3577398     -149326.09     -145845.94    
     53600   1436.8143      25140.044      6724.9433      48.731617      2.3577398     -149296.48     -145895.88    
     53700   1411.6262      56752.934      6724.9433      48.731617      2.3577398     -149493.29     -146152.3     
     53800   1399.317       99214.339      6724.9433      48.731617      2.3577398     -149599.04     -146287.19    
     53900   1377.8098      27002.682      6724.9433      48.731617      2.3577398     -149570.7      -146309.75    
     54000   1455.7263      57256.573      6724.9433      48.731617      2.3577398     -149577.4      -146132.04    
     54100   1404.8753     -18170.153      6724.9433      48.731617      2.3577398     -149368.56     -146043.55    
     54200   1373.7758      40797.146      6724.9433      48.731617      2.3577398     -149378.45     -146127.05    
     54300   1391.6479      99143.204      6724.9433      48.731617      2.3577398     -149476.09     -146182.39    
     54400   1420.6866     -6345.3583      6724.9433      48.731617      2.3577398     -149566.35     -146203.92    
     54500   1380.661       39502.15       6724.9433      48.731617      2.3577398     -149518.13     -146250.43    
     54600   1385.6022      26132.894      6724.9433      48.731617      2.3577398     -149613.06     -146333.66    
     54700   1360.267       78736.564      6724.9433      48.731617      2.3577398     -149676.56     -146457.13    
     54800   1336.3389      56175.97       6724.9433      48.731617      2.3577398     -149547.27     -146384.47    
     54900   1422.6097      24758.3        6724.9433      48.731617      2.3577398     -149509.01     -146142.03    
     55000   1488.3547      67548.47       6724.9433      48.731617      2.3577398     -149608.35     -146085.76    
     55100   1363.8924     -27566.938      6724.9433      48.731617      2.3577398     -149344.75     -146116.73    
     55200   1374.7598      43458.703      6724.9433      48.731617      2.3577398     -149468.3      -146214.57    
     55300   1340.5474      66854.302      6724.9433      48.731617      2.3577398     -149588.22     -146415.46    
     55400   1356.9641      4861.3556      6724.9433      48.731617      2.3577398     -149621.17     -146409.55    
     55500   1449.9077      44757.432      6724.9433      48.731617      2.3577398     -149639.49     -146207.9     
     55600   1337.8742     -11456.149      6724.9433      48.731617      2.3577398     -149306.62     -146140.19    
     55700   1428.7925      36736.316      6724.9433      48.731617      2.3577398     -149530.79     -146149.18    
     55800   1370.0572      82139.652      6724.9433      48.731617      2.3577398     -149490.44     -146247.84    
     55900   1353.3214     -33332.873      6724.9433      48.731617      2.3577398     -149505.01     -146302.02    
     56000   1422.8672     -54622.492      6724.9433      48.731617      2.3577398     -149605.88     -146238.29    
     56100   1432.0222     -8172.9175      6724.9433      48.731617      2.3577398     -149428.61     -146039.35    
     56200   1410.1729      36130.184      6724.9433      48.731617      2.3577398     -149335.45     -145997.9     
     56300   1450.7616      144536.55      6724.9433      48.731617      2.3577398     -149536.75     -146103.14    
     56400   1393.9815      28241.167      6724.9433      48.731617      2.3577398     -149633.62     -146334.39    
     56500   1373.3002     -7068.339       6724.9433      48.731617      2.3577398     -149606.99     -146356.72    
     56600   1403.3857      18503.31       6724.9433      48.731617      2.3577398     -149587.23     -146265.75    
     56700   1390.1055      19636.638      6724.9433      48.731617      2.3577398     -149437.64     -146147.59    
     56800   1446.5088      85918.984      6724.9433      48.731617      2.3577398     -149522.67     -146099.13    
     56900   1447.7339      30320.218      6724.9433      48.731617      2.3577398     -149399.62     -145973.18    
     57000   1392.3638      1370.5179      6724.9433      48.731617      2.3577398     -149254.71     -145959.31    
     57100   1385.1579      38984.242      6724.9433      48.731617      2.3577398     -149419.11     -146140.76    
     57200   1426.6004     -31373.961      6724.9433      48.731617      2.3577398     -149674.69     -146298.26    
     57300   1418.6691      18460.442      6724.9433      48.731617      2.3577398     -149668.84     -146311.19    
     57400   1383.2287      64840.316      6724.9433      48.731617      2.3577398     -149511.85     -146238.08    
     57500   1497.626       38593.677      6724.9433      48.731617      2.3577398     -149503.96     -145959.44    
     57600   1420.5135      11489.339      6724.9433      48.731617      2.3577398     -149311.4      -145949.38    
     57700   1405.7634      35495.149      6724.9433      48.731617      2.3577398     -149449.36     -146122.25    
     57800   1338.2363     -16544.11       6724.9433      48.731617      2.3577398     -149402.84     -146235.55    
     57900   1433.2859      67786.354      6724.9433      48.731617      2.3577398     -149642.89     -146250.64    
     58000   1413.6904      101621.39      6724.9433      48.731617      2.3577398     -149539.92     -146194.05    
     58100   1461.5323      23109.986      6724.9433      48.731617      2.3577398     -149406.06     -145946.96    
     58200   1461.8235      29808.946      6724.9433      48.731617      2.3577398     -149361.14     -145901.35    
     58300   1443.3209     -22511.265      6724.9433      48.731617      2.3577398     -149438.76     -146022.76    
     58400   1406.7058      51858.366      6724.9433      48.731617      2.3577398     -149482.67     -146153.33    
     58500   1446.2948      36021.242      6724.9433      48.731617      2.3577398     -149657.41     -146234.37    
     58600   1370.1574      48886.586      6724.9433      48.731617      2.3577398     -149543.34     -146300.5     
     58700   1416.3703      22990.468      6724.9433      48.731617      2.3577398     -149548.26     -146196.04    
     58800   1420.25        19588.641      6724.9433      48.731617      2.3577398     -149311.3      -145949.9     
     58900   1430.3436      2515.7936      6724.9433      48.731617      2.3577398     -149323.09     -145937.8     
     59000   1450.0521      11668.575      6724.9433      48.731617      2.3577398     -149496.05     -146064.12    
     59100   1412.4172      49874.615      6724.9433      48.731617      2.3577398     -149500.91     -146158.05    
     59200   1368.0148      82411.444      6724.9433      48.731617      2.3577398     -149492.32     -146254.55    
     59300   1346.815       16494.12       6724.9433      48.731617      2.3577398     -149449.42     -146261.83    
     59400   1419.3186      21061.98       6724.9433      48.731617      2.3577398     -149474.44     -146115.25    
     59500   1463.6196     -1546.1767      6724.9433      48.731617      2.3577398     -149443.54     -145979.5     
     59600   1437.3138     -21080.348      6724.9433      48.731617      2.3577398     -149560.82     -146159.04    
     59700   1405.5893      6512.0701      6724.9433      48.731617      2.3577398     -149612.06     -146285.37    
     59800   1426.1927      63002.651      6724.9433      48.731617      2.3577398     -149708.45     -146332.99    
     59900   1390.6534      82521.528      6724.9433      48.731617      2.3577398     -149669.43     -146378.09    
     60000   1396.9947      57161.799      6724.9433      48.731617      2.3577398     -149505.94     -146199.59    
     60100   1448.6923      49993.206      6724.9433      48.731617      2.3577398     -149453.81     -146025.1     
     60200   1442.2716      44395.255      6724.9433      48.731617      2.3577398     -149505.8      -146092.28    
     60300   1405.8017      64821.381      6724.9433      48.731617      2.3577398     -149560.93     -146233.73    
     60400   1389.5989     -20607.672      6724.9433      48.731617      2.3577398     -149585.15     -146296.3     
     60500   1406.3659      66737.814      6724.9433      48.731617      2.3577398     -149571.22     -146242.68    
     60600   1486.1174      46101.965      6724.9433      48.731617      2.3577398     -149587.4      -146070.12    
     60700   1486.1772      45142.511      6724.9433      48.731617      2.3577398     -149343.31     -145825.88    
     60800   1459.22        42712.863      6724.9433      48.731617      2.3577398     -149390.38     -145936.75    
     60900   1394.6619      40933.056      6724.9433      48.731617      2.3577398     -149397.17     -146096.34    
     61000   1377.9684      22213.167      6724.9433      48.731617      2.3577398     -149448.85     -146187.53    
     61100   1324.4591      16681.354      6724.9433      48.731617      2.3577398     -149339.09     -146204.41    
     61200   1352.3366      27846.221      6724.9433      48.731617      2.3577398     -149358.43     -146157.77    
     61300   1391.6502      15229.867      6724.9433      48.731617      2.3577398     -149265.21     -145971.5     
     61400   1454.1286      7770.4703      6724.9433      48.731617      2.3577398     -149363.92     -145922.34    
     61500   1423.3295      67149.216      6724.9433      48.731617      2.3577398     -149512.9      -146144.22    
     61600   1411.5318     -2648.9186      6724.9433      48.731617      2.3577398     -149600.32     -146259.56    
     61700   1377.8757      20609.57       6724.9433      48.731617      2.3577398     -149536.43     -146275.32    
     61800   1432.7839      16439.926      6724.9433      48.731617      2.3577398     -149641.55     -146250.49    
     61900   1449.0346     -3823.062       6724.9433      48.731617      2.3577398     -149505.97     -146076.45    
     62000   1443.881       39203.357      6724.9433      48.731617      2.3577398     -149325.85     -145908.53    
     62100   1424.2234      50010.631      6724.9433      48.731617      2.3577398     -149386.05     -146015.25    
     62200   1340.0433     -46794.774      6724.9433      48.731617      2.3577398     -149409.93     -146238.36    
     62300   1388.8213      75867.975      6724.9433      48.731617      2.3577398     -149563.92     -146276.9     
     62400   1364.7871      1677.4615      6724.9433      48.731617      2.3577398     -149498.01     -146267.88    
     62500   1371.4029      72514.25       6724.9433      48.731617      2.3577398     -149379.71     -146133.92    
     62600   1404.4138      7785.5621      6724.9433      48.731617      2.3577398     -149295.79     -145971.87    
     62700   1438.8299      7737.6057      6724.9433      48.731617      2.3577398     -149398.71     -145993.34    
     62800   1444.9848     -26995.453      6724.9433      48.731617      2.3577398     -149630.73     -146210.8     
     62900   1481.4484      14315.743      6724.9433      48.731617      2.3577398     -149785.24     -146279       
     63000   1364.5734      35072.378      6724.9433      48.731617      2.3577398     -149558.04     -146328.42    
     63100   1359.944       55851.56       6724.9433      48.731617      2.3577398     -149462.32     -146243.65    
     63200   1464.3131      24781.49       6724.9433      48.731617      2.3577398     -149542.06     -146076.37    
     63300   1444.838       114902.83      6724.9433      48.731617      2.3577398     -149482.32     -146062.73    
     63400   1376.9562      27570.367      6724.9433      48.731617      2.3577398     -149559.37     -146300.44    
     63500   1392.5269      1501.4542      6724.9433      48.731617      2.3577398     -149682.63     -146386.85    
     63600   1426.3321     -32486.658      6724.9433      48.731617      2.3577398     -149678.12     -146302.33    
     63700   1411.1422      77873.888      6724.9433      48.731617      2.3577398     -149521.42     -146181.58    
     63800   1424.9194      95317.042      6724.9433      48.731617      2.3577398     -149364.93     -145992.48    
     63900   1404.6591     -5263.9904      6724.9433      48.731617      2.3577398     -149267.09     -145942.59    
     64000   1498.3174      16964.984      6724.9433      48.731617      2.3577398     -149568        -146021.84    
     64100   1484.9288      13974.775      6724.9433      48.731617      2.3577398     -149675.99     -146161.51    
     64200   1404.1056     -2214.5073      6724.9433      48.731617      2.3577398     -149625.86     -146302.67    
     64300   1400.8046      85433.833      6724.9433      48.731617      2.3577398     -149658.12     -146342.75    
     64400   1383.127       6863.4002      6724.9433      48.731617      2.3577398     -149569.77     -146296.23    
     64500   1435.0175      27951.042      6724.9433      48.731617      2.3577398     -149466.36     -146070.01    
[...]
    384200   1330.4668     -54145.951      6724.9433      48.731617      2.3577398     -149811.4      -146662.5     
    384300   1343.3179      81151.221      6724.9433      48.731617      2.3577398     -149969.64     -146790.32    
    384400   1382.1281      59301.183      6724.9433      48.731617      2.3577398     -149916.7      -146645.53    
    384500   1343.6415      47044.692      6724.9433      48.731617      2.3577398     -149671.91     -146491.83    
    384600   1386.8006     -25762.635      6724.9433      48.731617      2.3577398     -149688.44     -146406.21    
    384700   1425.199      -31634.957      6724.9433      48.731617      2.3577398     -149820.71     -146447.6     
    384800   1344.9393      14427.041      6724.9433      48.731617      2.3577398     -149812.2      -146629.05    
    384900   1388.4118      12565.505      6724.9433      48.731617      2.3577398     -149956.59     -146670.55    
    385000   1412.3556      39038.06       6724.9433      48.731617      2.3577398     -149717.09     -146374.38    
    385100   1463.4562      20626.915      6724.9433      48.731617      2.3577398     -149731.67     -146268.02    
    385200   1434.6096     -9611.6079      6724.9433      48.731617      2.3577398     -149743.67     -146348.29    
    385300   1385.5971      12860.62       6724.9433      48.731617      2.3577398     -149821.23     -146541.85    
    385400   1405.4945      27572.933      6724.9433      48.731617      2.3577398     -149933.7      -146607.23    
    385500   1395.7193      27823.544      6724.9433      48.731617      2.3577398     -149853.76     -146550.42    
    385600   1387.2522      51842.381      6724.9433      48.731617      2.3577398     -149710.65     -146427.35    
    385700   1419.6965      20370.27       6724.9433      48.731617      2.3577398     -149765.08     -146404.99    
    385800   1392.1612      54943.372      6724.9433      48.731617      2.3577398     -149734.82     -146439.91    
    385900   1391.05        117.14074      6724.9433      48.731617      2.3577398     -149810.17     -146517.88    
    386000   1341.0388     -19317.121      6724.9433      48.731617      2.3577398     -149851.34     -146677.41    
    386100   1278.3573      25905.077      6724.9433      48.731617      2.3577398     -149893.04     -146867.47    
    386200   1313.6307      8354.4101      6724.9433      48.731617      2.3577398     -149855.37     -146746.32    
    386300   1361.8579      47627.148      6724.9433      48.731617      2.3577398     -149733.45     -146510.26    
    386400   1425.2676      58019.796      6724.9433      48.731617      2.3577398     -149773.7      -146400.43    
    386500   1416.6087      19970.626      6724.9433      48.731617      2.3577398     -149673.6      -146320.82    
    386600   1471.5567      22110.767      6724.9433      48.731617      2.3577398     -149846.13     -146363.31    
    386700   1368.3227     -37339.219      6724.9433      48.731617      2.3577398     -149824.31     -146585.81    
    386800   1355.3385      107673.31      6724.9433      48.731617      2.3577398     -149846.23     -146638.47    
    386900   1383.0294      31518.072      6724.9433      48.731617      2.3577398     -149843.21     -146569.91    
    387000   1461.9965      35633.564      6724.9433      48.731617      2.3577398     -149899.32     -146439.12    
    387100   1461.3717     -22759.876      6724.9433      48.731617      2.3577398     -149683.84     -146225.12    
    387200   1535.3864      25706.193      6724.9433      48.731617      2.3577398     -149682.24     -146048.35    
    387300   1458.5717      41482.643      6724.9433      48.731617      2.3577398     -149691.18     -146239.09    
    387400   1429.394       57014.559      6724.9433      48.731617      2.3577398     -149722.08     -146339.05    
    387500   1374.931      -25178.366      6724.9433      48.731617      2.3577398     -149722.08     -146467.94    
    387600   1428.3682     -1940.8401      6724.9433      48.731617      2.3577398     -149911.52     -146530.91    
    387700   1398.0707      36499.854      6724.9433      48.731617      2.3577398     -149953.55     -146644.65    
    387800   1338.9017      76044.409      6724.9433      48.731617      2.3577398     -149996.88     -146828.01    
    387900   1302.3713      67852.336      6724.9433      48.731617      2.3577398     -149843.27     -146760.87    
    388000   1408.1637     -21603.721      6724.9433      48.731617      2.3577398     -149837.22     -146504.43    
    388100   1387.0292     -38070.937      6724.9433      48.731617      2.3577398     -149730.68     -146447.91    
    388200   1383.8983      10170.554      6724.9433      48.731617      2.3577398     -149643.52     -146368.16    
    388300   1403.0251      39453.182      6724.9433      48.731617      2.3577398     -149685.14     -146364.51    
    388400   1395.2377      16968.379      6724.9433      48.731617      2.3577398     -149788.86     -146486.66    
    388500   1328.7065     -29448.671      6724.9433      48.731617      2.3577398     -149830.33     -146685.6     
    388600   1393.0517     -30378.985      6724.9433      48.731617      2.3577398     -149967.53     -146670.51    
    388700   1340.1934      41405.649      6724.9433      48.731617      2.3577398     -149669.52     -146497.6     
    388800   1397.3233      8192.0233      6724.9433      48.731617      2.3577398     -149715.12     -146407.98    
    388900   1372.5739      56504.824      6724.9433      48.731617      2.3577398     -149614.34     -146365.78    
    389000   1354.4816      4105.6801      6724.9433      48.731617      2.3577398     -149598.33     -146392.6     
    389100   1413.2151     -22699.487      6724.9433      48.731617      2.3577398     -149884.58     -146539.83    
    389200   1303.0761     -19440.929      6724.9433      48.731617      2.3577398     -149767.97     -146683.9     
    389300   1428.9834      39443.873      6724.9433      48.731617      2.3577398     -149973.86     -146591.79    
    389400   1430.8224     -31196.397      6724.9433      48.731617      2.3577398     -149687.86     -146301.45    
    389500   1467.9321      1833.9393      6724.9433      48.731617      2.3577398     -149814        -146339.75    
    389600   1406.737      -31622.018      6724.9433      48.731617      2.3577398     -149845.61     -146516.19    
    389700   1424.2424     -14676.249      6724.9433      48.731617      2.3577398     -149998.3      -146627.46    
    389800   1336.2918      30110.829      6724.9433      48.731617      2.3577398     -149785.45     -146622.77    
    389900   1424.9066     -7358.5454      6724.9433      48.731617      2.3577398     -149837.4      -146464.98    
    390000   1436.2824      22880.886      6724.9433      48.731617      2.3577398     -149612.39     -146213.05    
    390100   1441.1109     -14456.209      6724.9433      48.731617      2.3577398     -149665.4      -146254.63    
    390200   1362.3428     -19950.651      6724.9433      48.731617      2.3577398     -149624.01     -146399.67    
    390300   1383.111       33738.659      6724.9433      48.731617      2.3577398     -149756.89     -146483.4     
    390400   1367.2084      62683.823      6724.9433      48.731617      2.3577398     -149799.74     -146563.88    
    390500   1346.4032     -19790.668      6724.9433      48.731617      2.3577398     -149815.14     -146628.52    
    390600   1362.7806      21705.962      6724.9433      48.731617      2.3577398     -149952.17     -146726.79    
    390700   1299.7214     -1554.2846      6724.9433      48.731617      2.3577398     -149775        -146698.87    
    390800   1397.6437      32697.738      6724.9433      48.731617      2.3577398     -149782.51     -146474.62    
    390900   1428.6598      45807.968      6724.9433      48.731617      2.3577398     -149750.14     -146368.84    
    391000   1484.813       70518.301      6724.9433      48.731617      2.3577398     -149870.06     -146355.86    
    391100   1438.4231      30217.851      6724.9433      48.731617      2.3577398     -149885.88     -146481.47    
    391200   1316.2982      52133.277      6724.9433      48.731617      2.3577398     -149801.05     -146685.68    
    391300   1332.6219      10530.566      6724.9433      48.731617      2.3577398     -149866.78     -146712.78    
    391400   1396.9771     -3962.6787      6724.9433      48.731617      2.3577398     -149883.64     -146577.32    
    391500   1392.4653      20168.544      6724.9433      48.731617      2.3577398     -149815.91     -146520.28    
    391600   1495.5679      49796.007      6724.9433      48.731617      2.3577398     -149983.8      -146444.14    
    391700   1385.7269      57240.952      6724.9433      48.731617      2.3577398     -149714.9      -146435.21    
    391800   1454.5759      15280.039      6724.9433      48.731617      2.3577398     -149916.45     -146473.81    
    391900   1349.8207      14446.001      6724.9433      48.731617      2.3577398     -149879.72     -146685.02    
    392000   1353.3152      2389.9829      6724.9433      48.731617      2.3577398     -149900.97     -146698       
    392100   1401.328      -7589.1757      6724.9433      48.731617      2.3577398     -149825.33     -146508.72    
    392200   1385.3408      38443.388      6724.9433      48.731617      2.3577398     -149686.9      -146408.13    
    392300   1436.5172      40240.134      6724.9433      48.731617      2.3577398     -149815.86     -146415.96    
    392400   1410.6584      1287.7015      6724.9433      48.731617      2.3577398     -149813.37     -146474.68    
    392500   1418.7627     -12500.099      6724.9433      48.731617      2.3577398     -149961.3      -146603.42    
    392600   1357.8095      12573.611      6724.9433      48.731617      2.3577398     -149971.87     -146758.26    
    392700   1394.4584      29362.534      6724.9433      48.731617      2.3577398     -149963.97     -146663.62    
    392800   1473.9899     -99.330823      6724.9433      48.731617      2.3577398     -149904.51     -146415.92    
    392900   1385.9465      961.53424      6724.9433      48.731617      2.3577398     -149711.35     -146431.15    
    393000   1405.683       8466.783       6724.9433      48.731617      2.3577398     -149829.93     -146503.01    
    393100   1403.2579      42900.99       6724.9433      48.731617      2.3577398     -149941.38     -146620.2     
    393200   1361.7261      34301.341      6724.9433      48.731617      2.3577398     -149929.89     -146707.01    
    393300   1357.7152      32946.244      6724.9433      48.731617      2.3577398     -149959.3      -146745.91    
    393400   1389.1945     -4668.5247      6724.9433      48.731617      2.3577398     -149841.54     -146553.65    
    393500   1399.6848      63243.118      6724.9433      48.731617      2.3577398     -149679.59     -146366.86    
    393600   1415.2493      5390.5558      6724.9433      48.731617      2.3577398     -149742.75     -146393.19    
    393700   1366.0171      4462.7178      6724.9433      48.731617      2.3577398     -149754.29     -146521.26    
    393800   1403.9421      41930.094      6724.9433      48.731617      2.3577398     -149956.62     -146633.82    
    393900   1308.735       5813.1096      6724.9433      48.731617      2.3577398     -149883.12     -146785.65    
    394000   1354.516       8849.75        6724.9433      48.731617      2.3577398     -149970.46     -146764.64    
    394100   1375.7        -38512.611      6724.9433      48.731617      2.3577398     -149784.63     -146528.67    
    394200   1405.8524     -17084.38       6724.9433      48.731617      2.3577398     -149764.89     -146437.57    
    394300   1401.5007      28584.717      6724.9433      48.731617      2.3577398     -149740.16     -146423.14    
    394400   1360.9183      93728.625      6724.9433      48.731617      2.3577398     -149659.04     -146438.07    
    394500   1342.3198      38204.355      6724.9433      48.731617      2.3577398     -149649.19     -146472.23    
    394600   1378.8153      39251.056      6724.9433      48.731617      2.3577398     -149759.27     -146495.94    
    394700   1429.09       -13278.282      6724.9433      48.731617      2.3577398     -149825.33     -146443.01    
    394800   1387.3128      69434.575      6724.9433      48.731617      2.3577398     -149672.35     -146388.91    
    394900   1414.4413      32363.218      6724.9433      48.731617      2.3577398     -149727.16     -146379.51    
    395000   1425.7193     -5949.0315      6724.9433      48.731617      2.3577398     -149835.63     -146461.29    
    395100   1387.1795      5010.7373      6724.9433      48.731617      2.3577398     -149898.71     -146615.58    
    395200   1376.6377     -11791.876      6724.9433      48.731617      2.3577398     -149914.5      -146656.32    
    395300   1403.0963      6884.5129      6724.9433      48.731617      2.3577398     -149846.45     -146525.65    
    395400   1465.4011     -11370.982      6724.9433      48.731617      2.3577398     -149764.12     -146295.87    
    395500   1439.9222      14379.662      6724.9433      48.731617      2.3577398     -149712.02     -146304.07    
    395600   1324.329      -11116.521      6724.9433      48.731617      2.3577398     -149597.49     -146463.12    
    395700   1343.3339      53739.582      6724.9433      48.731617      2.3577398     -149670.1      -146490.75    
    395800   1378.2048      34921.904      6724.9433      48.731617      2.3577398     -149702.53     -146440.64    
    395900   1434.0457      8944.4273      6724.9433      48.731617      2.3577398     -149788.23     -146394.18    
    396000   1381.3338     -1323.3216      6724.9433      48.731617      2.3577398     -149567.14     -146297.85    
    396100   1426.781       26154.044      6724.9433      48.731617      2.3577398     -149541.2      -146164.34    
    396200   1464.9399      29935.774      6724.9433      48.731617      2.3577398     -149774.81     -146307.65    
    396300   1370.3916      39208.267      6724.9433      48.731617      2.3577398     -149752.74     -146509.35    
    396400   1386.9088     -19096.735      6724.9433      48.731617      2.3577398     -149806.22     -146523.74    
    396500   1414.2669     -9645.6408      6724.9433      48.731617      2.3577398     -149812.18     -146464.94    
    396600   1420.8236      3491.6559      6724.9433      48.731617      2.3577398     -149745.52     -146382.76    
    396700   1462.9953      7013.8512      6724.9433      48.731617      2.3577398     -149761.79     -146299.22    
    396800   1407.2677      26603.584      6724.9433      48.731617      2.3577398     -149771.72     -146441.06    
    396900   1389.9903     -9173.7369      6724.9433      48.731617      2.3577398     -149892.23     -146602.45    
    397000   1446.1487      16645.756      6724.9433      48.731617      2.3577398     -149995.92     -146573.23    
    397100   1377.9811      28135.069      6724.9433      48.731617      2.3577398     -149753.8      -146492.45    
    397200   1536.4807      17079.083      6724.9433      48.731617      2.3577398     -149891.17     -146254.69    
    397300   1404.7615      73660.292      6724.9433      48.731617      2.3577398     -149551.65     -146226.91    
    397400   1414.7998      18342.535      6724.9433      48.731617      2.3577398     -149718.94     -146370.45    
    397500   1407.9778     -2234.6595      6724.9433      48.731617      2.3577398     -149783.01     -146450.66    
    397600   1402.5613     -6169.393       6724.9433      48.731617      2.3577398     -149780.22     -146460.69    
    397700   1428.1102     -32647.598      6724.9433      48.731617      2.3577398     -149846.63     -146466.63    
    397800   1471.6461      30147.307      6724.9433      48.731617      2.3577398     -150030.62     -146547.58    
    397900   1359.8576      9255.3473      6724.9433      48.731617      2.3577398     -149938.38     -146719.92    
    398000   1373.6494      2095.6163      6724.9433      48.731617      2.3577398     -149982.84     -146731.74    
    398100   1332.2628     -10879.387      6724.9433      48.731617      2.3577398     -149640.23     -146487.08    
    398200   1402.9717      50241.886      6724.9433      48.731617      2.3577398     -149659.48     -146338.98    
    398300   1430.9663      68323.196      6724.9433      48.731617      2.3577398     -149776.44     -146389.68    
    398400   1381.4697      41431.353      6724.9433      48.731617      2.3577398     -149783.15     -146513.54    
    398500   1359.5846      23687.637      6724.9433      48.731617      2.3577398     -149857.4      -146639.59    
    398600   1398.1777      27017.866      6724.9433      48.731617      2.3577398     -149989.83     -146680.67    
    398700   1379.4232     -9286.9987      6724.9433      48.731617      2.3577398     -149733.25     -146468.48    
    398800   1472.9042      20200.25       6724.9433      48.731617      2.3577398     -149812.41     -146326.39    
    398900   1394.8125      18667.473      6724.9433      48.731617      2.3577398     -149650.57     -146349.38    
    399000   1415.3693     -38835.108      6724.9433      48.731617      2.3577398     -149833.45     -146483.6     
    399100   1393.9526      10564.875      6724.9433      48.731617      2.3577398     -149952.15     -146652.99    
    399200   1363.3168      23100.932      6724.9433      48.731617      2.3577398     -149921.84     -146695.19    
    399300   1426.6338     -30860.787      6724.9433      48.731617      2.3577398     -149833.19     -146456.69    
    399400   1407.7436      39506.647      6724.9433      48.731617      2.3577398     -149634.87     -146303.08    
    399500   1383.7591      29500.344      6724.9433      48.731617      2.3577398     -149575.05     -146300.02    
    399600   1398.7952      851.79912      6724.9433      48.731617      2.3577398     -149738.01     -146427.39    
    399700   1343.6401     -19456.071      6724.9433      48.731617      2.3577398     -149794.64     -146614.57    
    399800   1375.9671      44902.734      6724.9433      48.731617      2.3577398     -149925.75     -146669.16    
    399900   1353.1136     -29635.982      6724.9433      48.731617      2.3577398     -149792.77     -146590.27    
    400000   1438.4181      63102.488      6724.9433      48.731617      2.3577398     -149719.65     -146315.25    
    400011   1470.3541      42943.691      6724.9433      48.731617      2.3577398     -149790.07     -146310.09    
Loop time of 14714.5 on 64 procs for 400000 steps with 795 atoms

Performance: 0.587 ns/day, 40.873 hours/ns, 27.184 timesteps/s
99.7% CPU use with 64 MPI tasks x 1 OpenMP threads

MPI task timing breakdown:
Section |  min time  |  avg time  |  max time  |%varavg| %total
---------------------------------------------------------------
Pair    | 7548.3     | 10622      | 13170      |1517.5 | 72.19
Neigh   | 100.99     | 147.82     | 179.33     | 187.2 |  1.00
Comm    | 204.87     | 2563.6     | 5659.5     |2876.1 | 17.42
Output  | 0.50956    | 0.61392    | 0.85173    |   8.4 |  0.00
Modify  | 1152.3     | 1377.5     | 2001.6     | 531.9 |  9.36
Other   |            | 2.844      |            |       |  0.02

Nlocal:        12.4219 ave          15 max           3 min
Histogram: 3 0 1 2 0 7 1 4 15 31
Nghost:        2080.08 ave        2350 max        1786 min
Histogram: 11 5 0 4 5 8 11 7 3 10
Neighs:        6988.73 ave        9190 max        1202 min
Histogram: 3 1 2 0 3 6 4 13 17 15

Total # of neighbors = 447279
Ave neighs/atom = 562.61509
Neighbor list builds = 14193
Dangerous builds = 0

write_data graphene_single_layer_ReaxFF_795_C_temp_1400K.data ### MODIFY FILE NAME ###
System init for write_data ...
Total wall time: 4:05:16
