
# System definition
read_data graphene_single_layer_x-45_y-45_795_C.data ### MODIFY FILE NAME ###
Reading data file ...
  orthogonal box = (-1.4464652 -1.4423034 -1.42) to (47.285152 47.149102 1.42)
  8 by 8 by 1 MPI processor grid
  reading atoms ...
  795 atoms
  reading velocities ...
  795 velocities
  read_data CPU = 0.038 seconds

pair_style reax/c NULL
pair_coeff * * ffield.reax.cho C
Reading potential file ffield.reax.cho with DATE: 2011-02-18
fix qeq_reax all qeq/reax 1 0.0 10.0 1.0e-6 reax/c


# Minimization
timestep 0.25
min_style cg
thermo 100
thermo_style custom step temp press vol lx density pe etotal
dump 2 all custom 1000 graphene_single_layer_ReaxFF_795_C_temp_80K.lammpstrj id type x y z ### MODIFY FILE NAME ###
minimize 1.0e-6 1.0e-6 100 1000

CITE-CITE-CITE-CITE-CITE-CITE-CITE-CITE-CITE-CITE-CITE-CITE-CITE

Your simulation uses code contributions which should be cited:

- pair reaxff command:

@Article{Aktulga12,
 author = {H. M. Aktulga, J. C. Fogarty, S. A. Pandit, A. Y. Grama},
 title = {Parallel reactive molecular dynamics: Numerical methods and algorithmic techniques},
 journal = {Parallel Computing},
 year =    2012,
 volume =  38,
 pages =   {245--259}
}

- fix qeq/reaxff command:

@Article{Aktulga12,
 author = {H. M. Aktulga, J. C. Fogarty, S. A. Pandit, A. Y. Grama},
 title = {Parallel reactive molecular dynamics: Numerical methods and algorithmic techniques},
 journal = {Parallel Computing},
 year =    2012,
 volume =  38,
 pages =   {245--259}
}

CITE-CITE-CITE-CITE-CITE-CITE-CITE-CITE-CITE-CITE-CITE-CITE-CITE

WARNING: Using 'neigh_modify every 1 delay 0 check yes' setting during minimization (src/min.cpp:187)
Neighbor list info ...
  update every 1 steps, delay 0 steps, check yes
  max neighbors/atom: 10000, page size: 100000
  master list distance cutoff = 10.4
  ghost atom cutoff = 10.4
  binsize = 5.2, bins = 10 10 1
  2 neighbor lists, perpetual/occasional/extra = 2 0 0
  (1) pair reax/c, perpetual
      attributes: half, newton off, ghost
      pair build: half/bin/newtoff/ghost
      stencil: full/ghost/bin/3d
      bin: standard
  (2) fix qeq/reax, perpetual, copy from (1)
      attributes: half, newton off
      pair build: copy
      stencil: none
      bin: none
Per MPI rank memory allocation (min/avg/max) = 36.37 | 41.41 | 47.38 Mbytes
   Step          Temp          Press          Volume           Lx          Density         PotEng         TotEng    
         0   923            34054.396      6724.9433      48.731617      2.3577398     -151766.67     -149582.14    
        11   923            35396.792      6724.9433      48.731617      2.3577398     -151904.55     -149720.03    
Loop time of 2.18037 on 64 procs for 11 steps with 795 atoms

98.3% CPU use with 64 MPI tasks x 1 OpenMP threads

Minimization stats:
  Stopping criterion = energy tolerance
  Energy initial, next-to-last, final = 
     -151766.666472543  -151904.508881892  -151904.547898656
  Force two-norm initial, final = 279.94165 356.09863
  Force max component initial, final = 137.99181 55.448555
  Final line search alpha, max atom move = 0.00038853166 0.021543519
  Iterations, force evaluations = 11 32

MPI task timing breakdown:
Section |  min time  |  avg time  |  max time  |%varavg| %total
---------------------------------------------------------------
Pair    | 0.85413    | 1.2697     | 1.7711     |  18.0 | 58.23
Neigh   | 0.011321   | 0.018306   | 0.025219   |   2.2 |  0.84
Comm    | 0.072773   | 0.48453    | 0.83715    |  25.3 | 22.22
Output  | 0          | 0          | 0          |   0.0 |  0.00
Modify  | 0.30713    | 0.31399    | 0.32105    |   0.5 | 14.40
Other   |            | 0.09385    |            |       |  4.30

Nlocal:        12.4219 ave          15 max          10 min
Histogram: 15 0 0 0 22 0 12 0 0 15
Nghost:        2194.12 ave        2559 max        1869 min
Histogram: 2 8 9 4 12 12 5 4 6 2
Neighs:        6807.34 ave        8856 max        4476 min
Histogram: 4 8 3 7 7 13 5 2 0 15

Total # of neighbors = 435670
Ave neighs/atom = 548.01258
Neighbor list builds = 1
Dangerous builds = 0

fix 1 all nvt temp 80.0 80.0 $(100.0*dt)  ### MODIFY INIT TEMP, FINAL TEMP ###
fix 1 all nvt temp 80.0 80.0 25  
run 400000
Per MPI rank memory allocation (min/avg/max) = 35.25 | 40.29 | 46.26 Mbytes
   Step          Temp          Press          Volume           Lx          Density         PotEng         TotEng    
        11   923            35396.792      6724.9433      48.731617      2.3577398     -151904.55     -149720.03    
       100   396.79194      48276.285      6724.9433      48.731617      2.3577398     -151404.81     -150465.7     
       200   221.88139      108219.49      6724.9433      48.731617      2.3577398     -151711.91     -151186.77    
       300   204.91031     -60310.998      6724.9433      48.731617      2.3577398     -152142.9      -151657.93    
       400   148.95972      65123.044      6724.9433      48.731617      2.3577398     -152352.57     -152000.02    
       500   149.98752      2461.6424      6724.9433      48.731617      2.3577398     -152650.75     -152295.76    
       600   107.43202      32839.032      6724.9433      48.731617      2.3577398     -152753.06     -152498.8     
       700   96.38845       11963.75       6724.9433      48.731617      2.3577398     -152868.17     -152640.04    
       800   79.299949      38010.558      6724.9433      48.731617      2.3577398     -152913.38     -152725.7     
       900   73.047149      4624.9874      6724.9433      48.731617      2.3577398     -152939.32     -152766.44    
      1000   70.345805      33165.746      6724.9433      48.731617      2.3577398     -152934.28     -152767.79    
      1100   81.79909       25429.263      6724.9433      48.731617      2.3577398     -152928.97     -152735.37    
      1200   87.098455      32878.784      6724.9433      48.731617      2.3577398     -152905.45     -152699.3     
      1300   91.908982      5732.3864      6724.9433      48.731617      2.3577398     -152907.83     -152690.31    
      1400   83.038031      22736.145      6724.9433      48.731617      2.3577398     -152909.06     -152712.53    
      1500   75.444427      16906.527      6724.9433      48.731617      2.3577398     -152913.11     -152734.55    
      1600   89.672743      47116.393      6724.9433      48.731617      2.3577398     -152957.02     -152744.78    
      1700   92.91108       22548.097      6724.9433      48.731617      2.3577398     -153004.74     -152784.84    
      1800   72.50115       7672.9483      6724.9433      48.731617      2.3577398     -153004.5      -152832.9     
      1900   73.089539      450.91019      6724.9433      48.731617      2.3577398     -153029.87     -152856.88    
      2000   68.618687      35925.824      6724.9433      48.731617      2.3577398     -153010.69     -152848.29    
      2100   81.458875      421.53839      6724.9433      48.731617      2.3577398     -153007.81     -152815.01    
      2200   84.46699       24551.674      6724.9433      48.731617      2.3577398     -152990.27     -152790.35    
      2300   85.098776      8076.1341      6724.9433      48.731617      2.3577398     -152990.58     -152789.17    
      2400   78.277379      41911.518      6724.9433      48.731617      2.3577398     -152997.62     -152812.35    
      2500   73.99359       24787.36       6724.9433      48.731617      2.3577398     -153005.88     -152830.75    
      2600   77.175987      12132.502      6724.9433      48.731617      2.3577398     -153012.75     -152830.1     
      2700   79.970564      6487.6463      6724.9433      48.731617      2.3577398     -153005.74     -152816.47    
      2800   79.974167      23224.394      6724.9433      48.731617      2.3577398     -152990.91     -152801.63    
      2900   82.417682      30662.213      6724.9433      48.731617      2.3577398     -152996.35     -152801.29    
      3000   84.015708      29076.156      6724.9433      48.731617      2.3577398     -153017.36     -152818.51    
      3100   74.252228     -1303.5959      6724.9433      48.731617      2.3577398     -153010.64     -152834.91    
      3200   72.815793      29498.909      6724.9433      48.731617      2.3577398     -153008.34     -152836       
      3300   80.840919     -11867.925      6724.9433      48.731617      2.3577398     -153014.61     -152823.28    
      3400   82.938452      9801.9902      6724.9433      48.731617      2.3577398     -153000.82     -152804.53    
      3500   80.346771      12021.51       6724.9433      48.731617      2.3577398     -152989.68     -152799.52    
      3600   81.030402      21263.79       6724.9433      48.731617      2.3577398     -153003.23     -152811.45    
      3700   77.472655      3950.6517      6724.9433      48.731617      2.3577398     -153008.85     -152825.49    
      3800   80.323725      14744.33       6724.9433      48.731617      2.3577398     -153021.49     -152831.38    
      3900   77.870424      22993.087      6724.9433      48.731617      2.3577398     -153009.21     -152824.91    
      4000   78.899915      17941.146      6724.9433      48.731617      2.3577398     -153002.09     -152815.36    
      4100   79.335755      17686.072      6724.9433      48.731617      2.3577398     -152998.01     -152810.24    
      4200   81.113839      15851.515      6724.9433      48.731617      2.3577398     -153003.44     -152811.46    
      4300   82.546403      8248.1426      6724.9433      48.731617      2.3577398     -153012.64     -152817.27    
      4400   75.280964      40334.998      6724.9433      48.731617      2.3577398     -153001.42     -152823.25    
      4500   76.408678      20557.88       6724.9433      48.731617      2.3577398     -153006.49     -152825.65    
      4600   81.909661      52551.786      6724.9433      48.731617      2.3577398     -153013.26     -152819.4     
      4700   81.711365      9462.7721      6724.9433      48.731617      2.3577398     -153002.51     -152809.12    
      4800   81.006022      32005.13       6724.9433      48.731617      2.3577398     -152998.52     -152806.79    
      4900   78.888097      19376.665      6724.9433      48.731617      2.3577398     -152999.22     -152812.51    
      5000   77.447696     -1183.6215      6724.9433      48.731617      2.3577398     -153004.95     -152821.65    
      5100   77.087478     -1265.5993      6724.9433      48.731617      2.3577398     -153008.78     -152826.33    
      5200   78.914705      17284.707      6724.9433      48.731617      2.3577398     -153006.71     -152819.94    
      5300   79.324714      6532.024       6724.9433      48.731617      2.3577398     -152996.99     -152809.24    
      5400   82.015325      3007.1173      6724.9433      48.731617      2.3577398     -152998.6      -152804.49    
      5500   82.866458      16151.027      6724.9433      48.731617      2.3577398     -153006.42     -152810.29    
      5600   80.516669      25789.086      6724.9433      48.731617      2.3577398     -153012.14     -152821.57    
      5700   76.082946      23578.759      6724.9433      48.731617      2.3577398     -153005.54     -152825.47    
      5800   81.056912      26756.721      6724.9433      48.731617      2.3577398     -153011.07     -152819.23    
      5900   82.983767     -7811.3289      6724.9433      48.731617      2.3577398     -153006.19     -152809.79    
      6000   80.336363      4962.1692      6724.9433      48.731617      2.3577398     -152999.82     -152809.68    
      6100   78.621387     -4584.366       6724.9433      48.731617      2.3577398     -153004.12     -152818.04    
      6200   78.818618      32406.764      6724.9433      48.731617      2.3577398     -153010.5      -152823.96    
      6300   77.296568      8374.3669      6724.9433      48.731617      2.3577398     -153004.85     -152821.9     
      6400   78.919856      25212.342      6724.9433      48.731617      2.3577398     -152997.99     -152811.21    
      6500   84.161198     -2772.9589      6724.9433      48.731617      2.3577398     -153000.44     -152801.25    
      6600   83.73791       20824.343      6724.9433      48.731617      2.3577398     -153004.39     -152806.2     
      6700   80.967037      7003.5405      6724.9433      48.731617      2.3577398     -153009.42     -152817.79    
      6800   76.713108      39100.875      6724.9433      48.731617      2.3577398     -153011.92     -152830.36    
      6900   77.71648       15072.921      6724.9433      48.731617      2.3577398     -153020.24     -152836.31    
      7000   79.798445      20924.223      6724.9433      48.731617      2.3577398     -153021.93     -152833.07    
      7100   77.184142      2848.2557      6724.9433      48.731617      2.3577398     -153011.66     -152828.98    
      7200   80.977005      25621.44       6724.9433      48.731617      2.3577398     -153014.57     -152822.91    
      7300   84.525451      3351.095       6724.9433      48.731617      2.3577398     -153019.9      -152819.85    
      7400   82.510456      13089.292      6724.9433      48.731617      2.3577398     -153023.96     -152828.67    
      7500   75.913222      20100.436      6724.9433      48.731617      2.3577398     -153022.43     -152842.76    
      7600   77.527329      9360.6094      6724.9433      48.731617      2.3577398     -153025.96     -152842.47    
      7700   78.598667      21529.238      6724.9433      48.731617      2.3577398     -153013.3      -152827.27    
      7800   83.484386     -1211.2078      6724.9433      48.731617      2.3577398     -153007.09     -152809.5     
      7900   84.57584       37635.339      6724.9433      48.731617      2.3577398     -153007.43     -152807.26    
      8000   82.08244       18201.845      6724.9433      48.731617      2.3577398     -153017.44     -152823.17    
      8100   75.913387      22036.855      6724.9433      48.731617      2.3577398     -153018.79     -152839.12    
      8200   75.681266      9229.753       6724.9433      48.731617      2.3577398     -153024.45     -152845.33    
      8300   78.277141      3233.7782      6724.9433      48.731617      2.3577398     -153025.26     -152839.99    
      8400   82.240285      15197.755      6724.9433      48.731617      2.3577398     -153020.55     -152825.91    
      8500   80.942462      35647.498      6724.9433      48.731617      2.3577398     -153007.39     -152815.82    
      8600   81.381105      25834.434      6724.9433      48.731617      2.3577398     -153013.48     -152820.87    
      8700   76.312524      21500.625      6724.9433      48.731617      2.3577398     -153013.83     -152833.22    
      8800   75.977324      14693.241      6724.9433      48.731617      2.3577398     -153018.7      -152838.88    
      8900   76.884567      12470.831      6724.9433      48.731617      2.3577398     -153013.69     -152831.72    
      9000   84.034536      19077.574      6724.9433      48.731617      2.3577398     -153020.3      -152821.41    
      9100   84.153961      34934.044      6724.9433      48.731617      2.3577398     -153023.46     -152824.29    
      9200   80.545473      19704.362      6724.9433      48.731617      2.3577398     -153025.72     -152835.09    
      9300   79.088552      15934.41       6724.9433      48.731617      2.3577398     -153026.98     -152839.8     
      9400   79.20897       15858.316      6724.9433      48.731617      2.3577398     -153019.04     -152831.57    
      9500   82.738417      25260.252      6724.9433      48.731617      2.3577398     -153017.99     -152822.17    
      9600   82.756958      8830.7588      6724.9433      48.731617      2.3577398     -153016.6      -152820.74    
      9700   79.071052      31146.703      6724.9433      48.731617      2.3577398     -153016.73     -152829.59    
      9800   79.746653      3965.3553      6724.9433      48.731617      2.3577398     -153025.54     -152836.8     
      9900   79.795501      12038.916      6724.9433      48.731617      2.3577398     -153023.5      -152834.64    
     10000   77.49303       6871.6502      6724.9433      48.731617      2.3577398     -153011.79     -152828.39    
     10100   81.352888      13922.367      6724.9433      48.731617      2.3577398     -153013.8      -152821.25    
     10200   81.263506      11102.266      6724.9433      48.731617      2.3577398     -153009.36     -152817.03    
     10300   82.156152      10535.77       6724.9433      48.731617      2.3577398     -153011.97     -152817.53    
     10400   79.702898      26030.515      6724.9433      48.731617      2.3577398     -153014.52     -152825.89    
     10500   78.647246      4863.6719      6724.9433      48.731617      2.3577398     -153023.91     -152837.77    
     10600   75.44483       25173.1        6724.9433      48.731617      2.3577398     -153021.46     -152842.9     
     10700   78.083408      27560.252      6724.9433      48.731617      2.3577398     -153019.91     -152835.1     
     10800   80.593501      9838.6529      6724.9433      48.731617      2.3577398     -153014.14     -152823.4     
     10900   83.477935      12494.998      6724.9433      48.731617      2.3577398     -153013.77     -152816.2     
     11000   82.921375      34727.833      6724.9433      48.731617      2.3577398     -153018.63     -152822.38    
     11100   79.761077      11035.311      6724.9433      48.731617      2.3577398     -153023.36     -152834.58    
     11200   74.208619     -17918.879      6724.9433      48.731617      2.3577398     -153015.45     -152839.82    
     11300   74.86093       8223.6376      6724.9433      48.731617      2.3577398     -153011.42     -152834.24    
     11400   80.49597       20426.361      6724.9433      48.731617      2.3577398     -153009.74     -152819.23    
     11500   84.822788      11070.412      6724.9433      48.731617      2.3577398     -153007.86     -152807.11    
     11600   84.747918     -2964.7249      6724.9433      48.731617      2.3577398     -153013.86     -152813.28    
     11700   79.993923      9480.9304      6724.9433      48.731617      2.3577398     -153022.45     -152833.13    
     11800   75.715635      12440.359      6724.9433      48.731617      2.3577398     -153025.13     -152845.93    
     11900   80.883785      4759.9153      6724.9433      48.731617      2.3577398     -153035.49     -152844.05    
     12000   79.530955      33568.282      6724.9433      48.731617      2.3577398     -153020.05     -152831.82    
     12100   84.198278      1467.6073      6724.9433      48.731617      2.3577398     -153019.11     -152819.84    
     12200   83.619447      8667.3207      6724.9433      48.731617      2.3577398     -153014.71     -152816.8     
     12300   82.031067      2772.3512      6724.9433      48.731617      2.3577398     -153013.65     -152819.5     
     12400   79.071679      4660.3817      6724.9433      48.731617      2.3577398     -153012.34     -152825.2     
     12500   76.852164      3278.5241      6724.9433      48.731617      2.3577398     -153014.19     -152832.3     
     12600   80.171722      25834.203      6724.9433      48.731617      2.3577398     -153023.24     -152833.5     
     12700   76.052264      30738.382      6724.9433      48.731617      2.3577398     -153011.59     -152831.59    
     12800   80.784926      29001.92       6724.9433      48.731617      2.3577398     -153020.49     -152829.29    
     12900   83.335275      12210.953      6724.9433      48.731617      2.3577398     -153026.06     -152828.82    
     13000   77.834276      12090.455      6724.9433      48.731617      2.3577398     -153016.35     -152832.13    
     13100   78.562852      16695.761      6724.9433      48.731617      2.3577398     -153020.31     -152834.37    
     13200   81.50085       28771.718      6724.9433      48.731617      2.3577398     -153024.31     -152831.42    
     13300   83.359276      12404.739      6724.9433      48.731617      2.3577398     -153024.84     -152827.54    
     13400   81.215954      5649.7437      6724.9433      48.731617      2.3577398     -153016.73     -152824.51    
     13500   83.098118     -6875.5151      6724.9433      48.731617      2.3577398     -153020.61     -152823.94    
     13600   77.465895      27054.584      6724.9433      48.731617      2.3577398     -153014.47     -152831.13    
     13700   81.35562       12889.715      6724.9433      48.731617      2.3577398     -153029.2      -152836.65    
     13800   79.154424      31268.617      6724.9433      48.731617      2.3577398     -153025.76     -152838.42    
     13900   79.362538      7231.545       6724.9433      48.731617      2.3577398     -153023.15     -152835.31    
     14000   82.718612      41574.73       6724.9433      48.731617      2.3577398     -153023.21     -152827.43    
     14100   83.262712     -8609.3173      6724.9433      48.731617      2.3577398     -153024.19     -152827.13    
     14200   78.987997      23826.136      6724.9433      48.731617      2.3577398     -153021.39     -152834.45    
     14300   77.84729       14808.453      6724.9433      48.731617      2.3577398     -153020.26     -152836.02    
     14400   79.655871      47960.061      6724.9433      48.731617      2.3577398     -153016.33     -152827.81    
     14500   83.408497     -10062.085      6724.9433      48.731617      2.3577398     -153017.43     -152820.02    
     14600   84.037307      17971.496      6724.9433      48.731617      2.3577398     -153020.35     -152821.45    
     14700   82.282928      16958.825      6724.9433      48.731617      2.3577398     -153027.42     -152832.68    
     14800   80.393051      34997.729      6724.9433      48.731617      2.3577398     -153033.5      -152843.23    
     14900   79.456251      1169.2854      6724.9433      48.731617      2.3577398     -153029.88     -152841.83    
     15000   81.436498      42574.508      6724.9433      48.731617      2.3577398     -153025.18     -152832.44    
     15100   78.208388      356.73121      6724.9433      48.731617      2.3577398     -153010.67     -152825.56    
     15200   81.926589      46657.823      6724.9433      48.731617      2.3577398     -153015.71     -152821.81    
     15300   82.082462     -11096.947      6724.9433      48.731617      2.3577398     -153017.16     -152822.89    
     15400   77.759425      38007.375      6724.9433      48.731617      2.3577398     -153013.34     -152829.31    
     15500   79.030478     -5648.7481      6724.9433      48.731617      2.3577398     -153020.35     -152833.3     
     15600   76.959783      24329.766      6724.9433      48.731617      2.3577398     -153018.45     -152836.3     
     15700   77.816623     -3827.154       6724.9433      48.731617      2.3577398     -153017.73     -152833.55    
     15800   79.792676      27855.048      6724.9433      48.731617      2.3577398     -153009.82     -152820.97    
     15900   80.48459      -1767.9463      6724.9433      48.731617      2.3577398     -153008.52     -152818.03    
     16000   79.900025      34828.448      6724.9433      48.731617      2.3577398     -153014.2      -152825.1     
     16100   77.615909      4948.5239      6724.9433      48.731617      2.3577398     -153015.37     -152831.67    
     16200   77.238231      15115.633      6724.9433      48.731617      2.3577398     -153021.12     -152838.31    
     16300   78.910809      10999.695      6724.9433      48.731617      2.3577398     -153034.35     -152847.59    
     16400   78.037617      17183.131      6724.9433      48.731617      2.3577398     -153024.03     -152839.33    
     16500   78.040445      16922.653      6724.9433      48.731617      2.3577398     -153013.68     -152828.98    
     16600   80.346833      27702.914      6724.9433      48.731617      2.3577398     -153013.73     -152823.56    
     16700   80.536917      6277.1096      6724.9433      48.731617      2.3577398     -153016.35     -152825.73    
     16800   79.144022      18354.923      6724.9433      48.731617      2.3577398     -153025.13     -152837.82    
     16900   77.74683      -3361.9083      6724.9433      48.731617      2.3577398     -153025.06     -152841.05    
     17000   78.589376      24543.696      6724.9433      48.731617      2.3577398     -153021.27     -152835.27    
     17100   80.767848     -2412.4985      6724.9433      48.731617      2.3577398     -153021.78     -152830.62    
     17200   78.991818      34682.267      6724.9433      48.731617      2.3577398     -153017.44     -152830.49    
     17300   79.512524     -15260.683      6724.9433      48.731617      2.3577398     -153017.67     -152829.48    
     17400   78.76176       40892.404      6724.9433      48.731617      2.3577398     -153011.94     -152825.53    
     17500   82.43116       7319.8071      6724.9433      48.731617      2.3577398     -153013.73     -152818.64    
     17600   85.144034      31394.629      6724.9433      48.731617      2.3577398     -153019.11     -152817.59    
     17700   80.710097      25796.914      6724.9433      48.731617      2.3577398     -153023.53     -152832.51    
     17800   82.650605      30622.822      6724.9433      48.731617      2.3577398     -153031.5      -152835.89    
     17900   80.454721     -306.29698      6724.9433      48.731617      2.3577398     -153021.16     -152830.75    
     18000   82.0918        21007.336      6724.9433      48.731617      2.3577398     -153019.63     -152825.34    
     18100   82.051813      22741.286      6724.9433      48.731617      2.3577398     -153019.6      -152825.4     
     18200   77.647507      20419.973      6724.9433      48.731617      2.3577398     -153021.38     -152837.61    
     18300   80.728273      5288.8634      6724.9433      48.731617      2.3577398     -153033.81     -152842.75    
     18400   77.0946        15858.886      6724.9433      48.731617      2.3577398     -153022.4      -152839.94    
     18500   81.057578      27214.085      6724.9433      48.731617      2.3577398     -153019.96     -152828.11    
     18600   82.167295      18350.132      6724.9433      48.731617      2.3577398     -153015.92     -152821.45    
     18700   77.724404      13667.062      6724.9433      48.731617      2.3577398     -153008.43     -152824.47    
     18800   79.33431       16995.801      6724.9433      48.731617      2.3577398     -153015.51     -152827.74    
     18900   80.233593      11350.434      6724.9433      48.731617      2.3577398     -153023.48     -152833.59    
     19000   78.860571      14392.734      6724.9433      48.731617      2.3577398     -153023.49     -152836.85    
     19100   81.356044      7701.9011      6724.9433      48.731617      2.3577398     -153027.03     -152834.48    
     19200   82.04963       23055.57       6724.9433      48.731617      2.3577398     -153027.12     -152832.92    
     19300   81.427486      5814.6198      6724.9433      48.731617      2.3577398     -153025.79     -152833.07    
     19400   79.128795      16382.579      6724.9433      48.731617      2.3577398     -153019.79     -152832.51    
     19500   78.972951      19395.785      6724.9433      48.731617      2.3577398     -153017.64     -152830.73    
     19600   77.706783      23208.519      6724.9433      48.731617      2.3577398     -153010.2      -152826.28    
     19700   82.160252      35903.445      6724.9433      48.731617      2.3577398     -153016.41     -152821.95    
     19800   81.579087      19561.638      6724.9433      48.731617      2.3577398     -153013.31     -152820.24    
     19900   77.305748      24132.772      6724.9433      48.731617      2.3577398     -153012.68     -152829.72    
     20000   81.808677      11546.787      6724.9433      48.731617      2.3577398     -153029.79     -152836.17    
     20100   79.790288      17785.673      6724.9433      48.731617      2.3577398     -153026.14     -152837.3     
     20200   80.013688      4632.31        6724.9433      48.731617      2.3577398     -153020.88     -152831.5     
     20300   84.452119      17339.331      6724.9433      48.731617      2.3577398     -153023.28     -152823.4     
     20400   81.718964      3836.1137      6724.9433      48.731617      2.3577398     -153011.61     -152818.2     
     20500   80.289142      24272.543      6724.9433      48.731617      2.3577398     -152999.48     -152809.46    
     20600   85.973019      19907.667      6724.9433      48.731617      2.3577398     -153010.2      -152806.72    
     20700   81.513622      28934.523      6724.9433      48.731617      2.3577398     -153015.72     -152822.8     
     20800   78.108868      10854.167      6724.9433      48.731617      2.3577398     -153012.55     -152827.69    
     20900   80.242518      12707.171      6724.9433      48.731617      2.3577398     -153018        -152828.08    
     21000   81.593037      14863.108      6724.9433      48.731617      2.3577398     -153020.29     -152827.18    
     21100   78.607393      23657.529      6724.9433      48.731617      2.3577398     -153018.79     -152832.75    
     21200   77.176583      15968.801      6724.9433      48.731617      2.3577398     -153025.46     -152842.8     
     21300   76.212768      10834.303      6724.9433      48.731617      2.3577398     -153021.85     -152841.47    
     21400   81.210703      7395.6006      6724.9433      48.731617      2.3577398     -153019.72     -152827.52    
     21500   79.384018      5256.1534      6724.9433      48.731617      2.3577398     -153014.85     -152826.97    
     21600   77.50466       43868.882      6724.9433      48.731617      2.3577398     -153013.63     -152830.2     
     21700   78.479323     -10418.532      6724.9433      48.731617      2.3577398     -153016.84     -152831.1     
     21800   79.684558      27623.804      6724.9433      48.731617      2.3577398     -153019.07     -152830.47    
     21900   82.070127     -6915.7546      6724.9433      48.731617      2.3577398     -153021.28     -152827.04    
     22000   79.953941      33434.669      6724.9433      48.731617      2.3577398     -153021.03     -152831.8     
     22100   77.806853      3489.8586      6724.9433      48.731617      2.3577398     -153023.26     -152839.11    
     22200   77.247077      16481.881      6724.9433      48.731617      2.3577398     -153021.76     -152838.93    
     22300   83.491681     -4296.1109      6724.9433      48.731617      2.3577398     -153023.38     -152825.77    
     22400   84.673544      41473.915      6724.9433      48.731617      2.3577398     -153022.87     -152822.47    
     22500   79.664929      4092.4016      6724.9433      48.731617      2.3577398     -153019.24     -152830.69    
     22600   76.664689      38233.986      6724.9433      48.731617      2.3577398     -153022.49     -152841.04    
     22700   79.040532     -10732.651      6724.9433      48.731617      2.3577398     -153028.08     -152841.01    
     22800   78.382991      24751.778      6724.9433      48.731617      2.3577398     -153022.44     -152836.93    
     22900   79.443772     -12839.754      6724.9433      48.731617      2.3577398     -153018.63     -152830.6     
     23000   81.345156      36048.486      6724.9433      48.731617      2.3577398     -153019.53     -152827.01    
     23100   82.864243     -5052.4272      6724.9433      48.731617      2.3577398     -153020.65     -152824.53    
     23200   78.752997      46009.222      6724.9433      48.731617      2.3577398     -153013.22     -152826.83    
     23300   77.978096     -18611.301      6724.9433      48.731617      2.3577398     -153021.95     -152837.39    
     23400   79.597392      29363.262      6724.9433      48.731617      2.3577398     -153031.52     -152843.13    
     23500   79.559572     -9113.9043      6724.9433      48.731617      2.3577398     -153028.1      -152839.8     
     23600   80.875527      28413.595      6724.9433      48.731617      2.3577398     -153016.21     -152824.8     
     23700   81.436093     -11754.595      6724.9433      48.731617      2.3577398     -153016.66     -152823.92    
     23800   81.971979      11170.953      6724.9433      48.731617      2.3577398     -153023.98     -152829.98    
     23900   78.963513     -3851.8651      6724.9433      48.731617      2.3577398     -153024.19     -152837.31    
     24000   76.624738      22982.467      6724.9433      48.731617      2.3577398     -153019.05     -152837.7     
     24100   78.619598      8175.4793      6724.9433      48.731617      2.3577398     -153015.19     -152829.11    
     24200   82.554642      13986.516      6724.9433      48.731617      2.3577398     -153008.16     -152812.77    
     24300   82.468962      16533.231      6724.9433      48.731617      2.3577398     -153012.26     -152817.07    
     24400   77.540215      27448.127      6724.9433      48.731617      2.3577398     -153010.3      -152826.79    
     24500   75.835294      14905.528      6724.9433      48.731617      2.3577398     -153012.07     -152832.59    
     24600   78.336036      28608.308      6724.9433      48.731617      2.3577398     -153021.87     -152836.47    
     24700   76.510969      3759.9563      6724.9433      48.731617      2.3577398     -153018.16     -152837.08    
     24800   80.99511       39148.753      6724.9433      48.731617      2.3577398     -153020.82     -152829.12    
     24900   79.145668      8732.1602      6724.9433      48.731617      2.3577398     -153007.48     -152820.16    
     25000   83.002184      4716.7536      6724.9433      48.731617      2.3577398     -153015.05     -152818.6     
     25100   78.883708      1255.8644      6724.9433      48.731617      2.3577398     -153015.02     -152828.32    
     25200   80.359695     -6884.9098      6724.9433      48.731617      2.3577398     -153023.02     -152832.83    
     25300   78.113798     -2197.1181      6724.9433      48.731617      2.3577398     -153020.15     -152835.27    
     25400   78.610038      15134.004      6724.9433      48.731617      2.3577398     -153028.37     -152842.32    
     25500   79.785674      13477.842      6724.9433      48.731617      2.3577398     -153035.37     -152846.54    
     25600   80.014882      13936.36       6724.9433      48.731617      2.3577398     -153026.23     -152836.85    
     25700   81.26172      -6309.3497      6724.9433      48.731617      2.3577398     -153019.49     -152827.16    
     25800   81.003285      21342.337      6724.9433      48.731617      2.3577398     -153016.37     -152824.65    
     25900   82.529535      1745.0704      6724.9433      48.731617      2.3577398     -153025.95     -152830.62    
     26000   77.850543      15440.875      6724.9433      48.731617      2.3577398     -153025.39     -152841.13    
     26100   79.436173      19964.015      6724.9433      48.731617      2.3577398     -153025.86     -152837.85    
     26200   83.995808      38547.896      6724.9433      48.731617      2.3577398     -153024.45     -152825.65    
     26300   84.440523     -973.45575      6724.9433      48.731617      2.3577398     -153026.97     -152827.12    
     26400   81.778301      30632.607      6724.9433      48.731617      2.3577398     -153027.25     -152833.7     
     26500   79.926393      9843.5859      6724.9433      48.731617      2.3577398     -153027.41     -152838.25    
     26600   78.035405      37996.534      6724.9433      48.731617      2.3577398     -153019.76     -152835.06    
     26700   84.851516     -4518.798       6724.9433      48.731617      2.3577398     -153024.05     -152823.23    
     26800   82.838848      30476.217      6724.9433      48.731617      2.3577398     -153021        -152824.94    
     26900   78.282408      6750.624       6724.9433      48.731617      2.3577398     -153019.52     -152834.24    
     27000   79.71497       21461.78       6724.9433      48.731617      2.3577398     -153025.65     -152836.99    
     27100   81.041986     -13177.788      6724.9433      48.731617      2.3577398     -153026.5      -152834.7     
     27200   80.447703      39938.081      6724.9433      48.731617      2.3577398     -153021.97     -152831.57    
     27300   81.405914      7684.2947      6724.9433      48.731617      2.3577398     -153020.52     -152827.86    
     27400   80.418799      7047.224       6724.9433      48.731617      2.3577398     -153021.78     -152831.44    
     27500   79.280562      21259.481      6724.9433      48.731617      2.3577398     -153030.83     -152843.19    
     27600   79.251826      18164.327      6724.9433      48.731617      2.3577398     -153031.89     -152844.32    
     27700   82.625732      17333.724      6724.9433      48.731617      2.3577398     -153029.47     -152833.91    
     27800   81.620516      18492.756      6724.9433      48.731617      2.3577398     -153021.96     -152828.78    
     27900   79.877293      12808.519      6724.9433      48.731617      2.3577398     -153017.98     -152828.93    
     28000   78.705378      15520.595      6724.9433      48.731617      2.3577398     -153018.67     -152832.4     
     28100   76.701019      14534.934      6724.9433      48.731617      2.3577398     -153018.78     -152837.25    
     28200   77.530545      11574.558      6724.9433      48.731617      2.3577398     -153026.36     -152842.86    
     28300   79.101728      7991.2104      6724.9433      48.731617      2.3577398     -153030.29     -152843.07    
     28400   80.674096      15401.354      6724.9433      48.731617      2.3577398     -153021.1      -152830.17    
     28500   82.746612      27563.189      6724.9433      48.731617      2.3577398     -153021.9      -152826.06    
     28600   82.027094     -4284.7425      6724.9433      48.731617      2.3577398     -153022.58     -152828.44    
     28700   80.246415      25211.578      6724.9433      48.731617      2.3577398     -153026.79     -152836.87    
     28800   75.017535     -3790.3395      6724.9433      48.731617      2.3577398     -153027.44     -152849.89    
     28900   75.39039       16990.371      6724.9433      48.731617      2.3577398     -153026.4      -152847.97    
     29000   80.356021      9584.6616      6724.9433      48.731617      2.3577398     -153028.48     -152838.3     
     29100   80.255942      21306.276      6724.9433      48.731617      2.3577398     -153024.74     -152834.79    
     29200   82.057558      29039.015      6724.9433      48.731617      2.3577398     -153022.06     -152827.85    
     29300   82.304398      21902.549      6724.9433      48.731617      2.3577398     -153017.88     -152823.08    
     29400   81.925664      19888.672      6724.9433      48.731617      2.3577398     -153023.88     -152829.98    
     29500   79.534692      29317.191      6724.9433      48.731617      2.3577398     -153030.46     -152842.22    
     29600   78.678055      30436.985      6724.9433      48.731617      2.3577398     -153026.45     -152840.23    
     29700   79.724558      24358.35       6724.9433      48.731617      2.3577398     -153021.63     -152832.94    
     29800   82.194051      4172.2321      6724.9433      48.731617      2.3577398     -153025.18     -152830.64    
     29900   79.887639      25410.505      6724.9433      48.731617      2.3577398     -153020.23     -152831.15    
     30000   80.173357      26230.06       6724.9433      48.731617      2.3577398     -153020.42     -152830.67    
     30100   79.027654      27445.217      6724.9433      48.731617      2.3577398     -153009.43     -152822.39    
     30200   81.687765      7058.9916      6724.9433      48.731617      2.3577398     -153006.12     -152812.78    
     30300   82.213659      22466.98       6724.9433      48.731617      2.3577398     -153012.42     -152817.84    
     30400   81.906328      21519.958      6724.9433      48.731617      2.3577398     -153023.35     -152829.5     
     30500   84.306065      7967.0677      6724.9433      48.731617      2.3577398     -153034.41     -152834.88    
     30600   78.245883      18537.685      6724.9433      48.731617      2.3577398     -153023.52     -152838.33    
     30700   79.604468      25245.291      6724.9433      48.731617      2.3577398     -153022.18     -152833.77    
     30800   84.204683      12089.373      6724.9433      48.731617      2.3577398     -153019.45     -152820.15    
     30900   84.676175     -11354.481      6724.9433      48.731617      2.3577398     -153020.24     -152819.83    
     31000   78.202151      12843.346      6724.9433      48.731617      2.3577398     -153011.83     -152826.74    
     31100   76.704021     -8545.4205      6724.9433      48.731617      2.3577398     -153011.8      -152830.26    
     31200   81.79859       8379.9283      6724.9433      48.731617      2.3577398     -153022.99     -152829.39    
     31300   79.596463     -9877.7458      6724.9433      48.731617      2.3577398     -153020.03     -152831.64    
     31400   78.529736      12966.557      6724.9433      48.731617      2.3577398     -153026.19     -152840.32    
     31500   77.532717      19820.611      6724.9433      48.731617      2.3577398     -153029.7      -152846.2     
     31600   79.611966      20868.138      6724.9433      48.731617      2.3577398     -153025.46     -152837.04    
     31700   81.290454      2766.4161      6724.9433      48.731617      2.3577398     -153020.58     -152828.19    
     31800   81.703529      12393.116      6724.9433      48.731617      2.3577398     -153024.46     -152831.09    
     31900   78.634529      13640.976      6724.9433      48.731617      2.3577398     -153024.02     -152837.91    
     32000   78.519221      14963.179      6724.9433      48.731617      2.3577398     -153024.71     -152838.87    
     32100   85.169844      25372.395      6724.9433      48.731617      2.3577398     -153023.66     -152822.09    
     32200   84.176819      39894.147      6724.9433      48.731617      2.3577398     -153016.62     -152817.39    
     32300   84.842565      9720.171       6724.9433      48.731617      2.3577398     -153025.03     -152824.23    
     32400   79.346659      23728.284      6724.9433      48.731617      2.3577398     -153021.77     -152833.98    
     32500   77.901241      8819.9495      6724.9433      48.731617      2.3577398     -153019.57     -152835.2     
     32600   78.585418      16803.609      6724.9433      48.731617      2.3577398     -153018.36     -152832.36    
     32700   81.334696     -6294.6972      6724.9433      48.731617      2.3577398     -153020.4      -152827.9     
     32800   81.645206      13021.517      6724.9433      48.731617      2.3577398     -153019.34     -152826.1     
     32900   79.228101      9586.4341      6724.9433      48.731617      2.3577398     -153023.26     -152835.74    
     33000   79.904217      19805.64       6724.9433      48.731617      2.3577398     -153033.98     -152844.86    
     33100   74.477946      26878.978      6724.9433      48.731617      2.3577398     -153016.65     -152840.38    
     33200   80.4554        23736.315      6724.9433      48.731617      2.3577398     -153019.07     -152828.65    
     33300   77.848435      23562.436      6724.9433      48.731617      2.3577398     -153009.09     -152824.84    
     33400   79.798847      30109.56       6724.9433      48.731617      2.3577398     -153013.18     -152824.31    
     33500   81.597252      12976.149      6724.9433      48.731617      2.3577398     -153027.36     -152834.24    
     33600   74.582866      13887.969      6724.9433      48.731617      2.3577398     -153020.57     -152844.05    
     33700   79.444012      15780.507      6724.9433      48.731617      2.3577398     -153027.22     -152839.19    
     33800   84.972123      23032.964      6724.9433      48.731617      2.3577398     -153033.07     -152831.96    
     33900   81.032884      20293.91       6724.9433      48.731617      2.3577398     -153021.61     -152829.83    
     34000   80.529443     -1330.3578      6724.9433      48.731617      2.3577398     -153021.48     -152830.89    
     34100   80.329018      53641.882      6724.9433      48.731617      2.3577398     -153024.97     -152834.85    
     34200   76.314695      7117.0278      6724.9433      48.731617      2.3577398     -153020.8      -152840.18    
     34300   82.292288      37514.578      6724.9433      48.731617      2.3577398     -153035.2      -152840.44    
     34400   79.303454      6374.9141      6724.9433      48.731617      2.3577398     -153020.51     -152832.82    
     34500   78.173459      14044.238      6724.9433      48.731617      2.3577398     -153009.23     -152824.22    
     34600   86.006756      20145.863      6724.9433      48.731617      2.3577398     -153023.22     -152819.66    
     34700   79.627078      6261.8937      6724.9433      48.731617      2.3577398     -153020.92     -152832.46    
     34800   77.395064     -9217.4702      6724.9433      48.731617      2.3577398     -153023.06     -152839.89    
     34900   80.178682      29581.111      6724.9433      48.731617      2.3577398     -153025.32     -152835.55    
     35000   79.754998     -7197.1931      6724.9433      48.731617      2.3577398     -153016.22     -152827.46    
     35100   80.738663      7207.2018      6724.9433      48.731617      2.3577398     -153011.7      -152820.61    
     35200   82.033973      11244.465      6724.9433      48.731617      2.3577398     -153016.2      -152822.04    
     35300   77.245254      23254.941      6724.9433      48.731617      2.3577398     -153021.24     -152838.42    
     35400   78.454068      9506.5422      6724.9433      48.731617      2.3577398     -153026.13     -152840.45    
     35500   81.481666      21684.623      6724.9433      48.731617      2.3577398     -153026.98     -152834.13    
     35600   80.210512      10632.521      6724.9433      48.731617      2.3577398     -153017.84     -152828       
     35700   81.775059      27716.454      6724.9433      48.731617      2.3577398     -153017.09     -152823.54    
     35800   83.451407     -1680.5969      6724.9433      48.731617      2.3577398     -153018.65     -152821.14    
     35900   80.320456      43500.927      6724.9433      48.731617      2.3577398     -153017.75     -152827.65    
     36000   79.142207      6442.4095      6724.9433      48.731617      2.3577398     -153024.89     -152837.58    
     36100   79.695478      29222.722      6724.9433      48.731617      2.3577398     -153028.18     -152839.56    
     36200   77.768958      4976.2918      6724.9433      48.731617      2.3577398     -153021.69     -152837.63    
     36300   80.285662      24277          6724.9433      48.731617      2.3577398     -153013.64     -152823.62    
     36400   82.455442      20679.459      6724.9433      48.731617      2.3577398     -153013.83     -152818.68    
     36500   80.410304      25270.145      6724.9433      48.731617      2.3577398     -153017.43     -152827.11    
     36600   80.6551        9448.9308      6724.9433      48.731617      2.3577398     -153025.98     -152835.09    
     36700   79.378542      18231.407      6724.9433      48.731617      2.3577398     -153024.41     -152836.54    
     36800   79.433995      29369.905      6724.9433      48.731617      2.3577398     -153022.56     -152834.56    
     36900   84.848647      9359.0655      6724.9433      48.731617      2.3577398     -153025.05     -152824.23    
     37000   83.214951     -10733.241      6724.9433      48.731617      2.3577398     -153015.51     -152818.56    
     37100   82.823584      35656.26       6724.9433      48.731617      2.3577398     -153020.93     -152824.9     
     37200   78.769663      16018.813      6724.9433      48.731617      2.3577398     -153023.41     -152836.98    
     37300   79.919251      21392.6        6724.9433      48.731617      2.3577398     -153029.59     -152840.44    
     37400   78.196267      17829.54       6724.9433      48.731617      2.3577398     -153025.62     -152840.54    
     37500   81.105253      3525.4271      6724.9433      48.731617      2.3577398     -153022.48     -152830.53    
     37600   81.69568       15931.854      6724.9433      48.731617      2.3577398     -153014.78     -152821.42    
     37700   81.220878      7515.9871      6724.9433      48.731617      2.3577398     -153015.89     -152823.66    
     37800   77.940204      30541.785      6724.9433      48.731617      2.3577398     -153017.4      -152832.93    
     37900   76.400804      3967.0157      6724.9433      48.731617      2.3577398     -153019.15     -152838.32    
     38000   77.719955      47636.553      6724.9433      48.731617      2.3577398     -153021.41     -152837.47    
     38100   79.366959      15166.97       6724.9433      48.731617      2.3577398     -153020.12     -152832.28    
     38200   81.014706      13227.835      6724.9433      48.731617      2.3577398     -153017.39     -152825.65    
     38300   82.949357      24638.82       6724.9433      48.731617      2.3577398     -153015.24     -152818.92    
     38400   84.755505      15552.453      6724.9433      48.731617      2.3577398     -153013.48     -152812.88    
     38500   82.991016      15608.378      6724.9433      48.731617      2.3577398     -153020.37     -152823.95    
     38600   80.960197      12212.247      6724.9433      48.731617      2.3577398     -153024.49     -152832.88    
     38700   80.79632       32809.412      6724.9433      48.731617      2.3577398     -153025        -152833.77    
     38800   81.419337      10581.503      6724.9433      48.731617      2.3577398     -153029.12     -152836.42    
     38900   76.914098      46379.742      6724.9433      48.731617      2.3577398     -153022.58     -152840.54    
     39000   80.622828      10777.567      6724.9433      48.731617      2.3577398     -153027.44     -152836.62    
     39100   81.113115      54068.872      6724.9433      48.731617      2.3577398     -153021.95     -152829.97    
     39200   78.777611      1060.9695      6724.9433      48.731617      2.3577398     -153008.1      -152821.65    
     39300   80.273556      23367.799      6724.9433      48.731617      2.3577398     -153007.04     -152817.05    
     39400   78.107242      8777.8782      6724.9433      48.731617      2.3577398     -153013.26     -152828.4     
     39500   75.224409      19617.066      6724.9433      48.731617      2.3577398     -153015.63     -152837.59    
     39600   81.867559     -483.22606      6724.9433      48.731617      2.3577398     -153027.44     -152833.68    
     39700   79.566465      54184.963      6724.9433      48.731617      2.3577398     -153018.32     -152830       
     39800   81.164996     -255.99569      6724.9433      48.731617      2.3577398     -153009.62     -152817.52    
     39900   81.693855      25369.315      6724.9433      48.731617      2.3577398     -153007.37     -152814.02    
     40000   80.759086      4338.2056      6724.9433      48.731617      2.3577398     -153013.25     -152822.11    
     40100   77.305585      46305.172      6724.9433      48.731617      2.3577398     -153012.01     -152829.04    
     40200   80.928255      11898.12       6724.9433      48.731617      2.3577398     -153025.19     -152833.66    
     40300   76.980029      30755.177      6724.9433      48.731617      2.3577398     -153019.25     -152837.06    
     40400   75.885442      24845.549      6724.9433      48.731617      2.3577398     -153013.97     -152834.36    
     40500   81.885643      26924.493      6724.9433      48.731617      2.3577398     -153014.69     -152820.89    
     40600   83.45931       11758.024      6724.9433      48.731617      2.3577398     -153018.51     -152820.98    
     40700   81.18472       28156.002      6724.9433      48.731617      2.3577398     -153021.93     -152829.79    
     40800   82.011373      20545.653      6724.9433      48.731617      2.3577398     -153028.84     -152834.74    
     40900   81.707295      29953.739      6724.9433      48.731617      2.3577398     -153029.1      -152835.72    
     41000   79.020364      16165.971      6724.9433      48.731617      2.3577398     -153020.33     -152833.31    
     41100   81.664394      5570.149       6724.9433      48.731617      2.3577398     -153023.09     -152829.8     
     41200   77.978512      29286.667      6724.9433      48.731617      2.3577398     -153020.74     -152836.19    
     41300   76.866024      8695.9589      6724.9433      48.731617      2.3577398     -153026.55     -152844.63    
     41400   77.331902      34768.275      6724.9433      48.731617      2.3577398     -153033.57     -152850.55    
     41500   75.451444      13431.038      6724.9433      48.731617      2.3577398     -153027.12     -152848.54    
     41600   80.396979      20654.035      6724.9433      48.731617      2.3577398     -153025.19     -152834.91    
     41700   81.216042      2306.8787      6724.9433      48.731617      2.3577398     -153023.23     -152831.01    
     41800   80.689742      13006.188      6724.9433      48.731617      2.3577398     -153028.54     -152837.57    
     41900   77.47466       25645.074      6724.9433      48.731617      2.3577398     -153026.97     -152843.61    
     42000   79.353697     -12060.87       6724.9433      48.731617      2.3577398     -153024.63     -152836.82    
     42100   81.027857      32906.258      6724.9433      48.731617      2.3577398     -153013.94     -152822.17    
     42200   83.072729      23535.224      6724.9433      48.731617      2.3577398     -153017.85     -152821.23    
     42300   80.317876      24271.743      6724.9433      48.731617      2.3577398     -153019.78     -152829.69    
     42400   81.506643      14391.686      6724.9433      48.731617      2.3577398     -153029.2      -152836.3     
     42500   79.195745      43012.452      6724.9433      48.731617      2.3577398     -153026.42     -152838.98    
     42600   81.61857       13416.085      6724.9433      48.731617      2.3577398     -153034        -152840.83    
     42700   77.18217       16294.536      6724.9433      48.731617      2.3577398     -153028.34     -152845.66    
     42800   75.449241      5462.9501      6724.9433      48.731617      2.3577398     -153027.11     -152848.54    
     42900   79.430842      7531.2565      6724.9433      48.731617      2.3577398     -153024.42     -152836.43    
     43000   81.257418      9246.0502      6724.9433      48.731617      2.3577398     -153018.86     -152826.55    
     43100   82.149828      21543.73       6724.9433      48.731617      2.3577398     -153018.72     -152824.3     
     43200   79.704481      15549.665      6724.9433      48.731617      2.3577398     -153013.94     -152825.29    
     43300   77.667455      28370.293      6724.9433      48.731617      2.3577398     -153017.03     -152833.21    
     43400   78.539624      12099.269      6724.9433      48.731617      2.3577398     -153029.02     -152843.13    
     43500   75.085276      21029.505      6724.9433      48.731617      2.3577398     -153021.76     -152844.06    
     43600   79.685295      7227.1164      6724.9433      48.731617      2.3577398     -153018.21     -152829.61    
     43700   83.800707      11549.552      6724.9433      48.731617      2.3577398     -153022.31     -152823.98    
     43800   79.177045      274.71313      6724.9433      48.731617      2.3577398     -153016.76     -152829.36    
     43900   78.12204       12349.288      6724.9433      48.731617      2.3577398     -153018.78     -152833.88    
     44000   78.382494      11141.171      6724.9433      48.731617      2.3577398     -153016.99     -152831.48    
     44100   83.296661      14906.236      6724.9433      48.731617      2.3577398     -153015.31     -152818.17    
     44200   83.18705       17827.175      6724.9433      48.731617      2.3577398     -153013.05     -152816.17    
     44300   80.206165     -2796.1842      6724.9433      48.731617      2.3577398     -153016.36     -152826.53    
     44400   75.512593      8649.1295      6724.9433      48.731617      2.3577398     -153008.27     -152829.55    
     44500   78.054395     -5155.0103      6724.9433      48.731617      2.3577398     -153012.38     -152827.65    
     44600   79.317564      13264.501      6724.9433      48.731617      2.3577398     -153015.61     -152827.88    
     44700   76.982638      11750.27       6724.9433      48.731617      2.3577398     -153018.83     -152836.63    
     44800   76.256524      36253.319      6724.9433      48.731617      2.3577398     -153027.13     -152846.65    
     44900   78.63687       4643.6419      6724.9433      48.731617      2.3577398     -153028.92     -152842.81    
     45000   80.93581       19523.906      6724.9433      48.731617      2.3577398     -153022.61     -152831.05    
     45100   80.310051      9028.9963      6724.9433      48.731617      2.3577398     -153018.49     -152828.42    
     45200   80.437113      41762.676      6724.9433      48.731617      2.3577398     -153021.56     -152831.19    
     45300   79.404781      5024.4097      6724.9433      48.731617      2.3577398     -153023.77     -152835.84    
     45400   78.931142      34727.125      6724.9433      48.731617      2.3577398     -153024.88     -152838.07    
     45500   81.119091      3927.8613      6724.9433      48.731617      2.3577398     -153023.76     -152831.77    
     45600   85.35966       48323.688      6724.9433      48.731617      2.3577398     -153025.17     -152823.15    
     45700   82.304434     -90.43191       6724.9433      48.731617      2.3577398     -153019.35     -152824.55    
     45800   76.316849      9463.5966      6724.9433      48.731617      2.3577398     -153019.1      -152838.47    
     45900   77.351187      19374.475      6724.9433      48.731617      2.3577398     -153024.42     -152841.35    
     46000   80.374154      11912.767      6724.9433      48.731617      2.3577398     -153027.99     -152837.77    
     46100   80.15932       8654.0522      6724.9433      48.731617      2.3577398     -153021.92     -152832.2     
     46200   82.848357      32073.385      6724.9433      48.731617      2.3577398     -153024.91     -152828.83    
     46300   80.797795      25767.328      6724.9433      48.731617      2.3577398     -153025.17     -152833.94    
     46400   77.611678      15643.793      6724.9433      48.731617      2.3577398     -153026.08     -152842.39    
     46500   76.712636      28270.693      6724.9433      48.731617      2.3577398     -153023.58     -152842.02    
     46600   76.791149      5094.5798      6724.9433      48.731617      2.3577398     -153013.46     -152831.71    
     46700   82.200857      17702.94       6724.9433      48.731617      2.3577398     -153020.52     -152825.97    
     46800   79.406364      12374.747      6724.9433      48.731617      2.3577398     -153019.92     -152831.98    
     46900   81.450762      22372.533      6724.9433      48.731617      2.3577398     -153030.58     -152837.81    
     47000   80.484914      22667.308      6724.9433      48.731617      2.3577398     -153028.07     -152837.59    
     47100   80.496759     -5274.5323      6724.9433      48.731617      2.3577398     -153024.19     -152833.67    
     47200   82.408536      10159.978      6724.9433      48.731617      2.3577398     -153022.97     -152827.92    
     47300   83.522792      2645.0722      6724.9433      48.731617      2.3577398     -153022.75     -152825.07    
     47400   79.207512      34775.371      6724.9433      48.731617      2.3577398     -153023.5      -152836.03    
     47500   76.754857     -4712.5101      6724.9433      48.731617      2.3577398     -153025.3      -152843.64    
     47600   77.754128      6553.1995      6724.9433      48.731617      2.3577398     -153025.87     -152841.85    
     47700   84.11941       6027.8519      6724.9433      48.731617      2.3577398     -153033.8      -152834.71    
     47800   82.10473       36095.09       6724.9433      48.731617      2.3577398     -153016.32     -152821.99    
     47900   80.996706     -384.49327      6724.9433      48.731617      2.3577398     -153008.09     -152816.39    
     48000   78.15293       25195.641      6724.9433      48.731617      2.3577398     -153004.89     -152819.92    
     48100   79.399973      6938.3518      6724.9433      48.731617      2.3577398     -153014.79     -152826.86    
     48200   76.421499      14774.224      6724.9433      48.731617      2.3577398     -153015.13     -152834.26    
     48300   72.749049     -14531.177      6724.9433      48.731617      2.3577398     -153009.32     -152837.14    
     48400   78.659628      43178.068      6724.9433      48.731617      2.3577398     -153012.17     -152826       
     48500   82.046805      1866.7628      6724.9433      48.731617      2.3577398     -153012.19     -152818       
     48600   81.001466      63148.539      6724.9433      48.731617      2.3577398     -153014.35     -152822.64    
     48700   80.894402     -2997.3562      6724.9433      48.731617      2.3577398     -153023.82     -152832.37    
     48800   76.372853      48301.033      6724.9433      48.731617      2.3577398     -153019.17     -152838.41    
     48900   77.659261      12430.89       6724.9433      48.731617      2.3577398     -153019.79     -152835.98    
     49000   78.181963      18898.794      6724.9433      48.731617      2.3577398     -153015.95     -152830.91    
     49100   82.10139       7181.4407      6724.9433      48.731617      2.3577398     -153019.8      -152825.48    
     49200   81.907917      17615.895      6724.9433      48.731617      2.3577398     -153010.49     -152816.64    
     49300   82.027482      8640.2749      6724.9433      48.731617      2.3577398     -153008.38     -152814.24    
     49400   76.983564      30166.976      6724.9433      48.731617      2.3577398     -153008.14     -152825.94    
     49500   80.440522      7052.9095      6724.9433      48.731617      2.3577398     -153023.86     -152833.48    
     49600   81.998331      28642.056      6724.9433      48.731617      2.3577398     -153030.35     -152836.28    
     49700   80.178936      16504.351      6724.9433      48.731617      2.3577398     -153028.02     -152838.25    
     49800   82.166202      31221.585      6724.9433      48.731617      2.3577398     -153027.34     -152832.87    
     49900   85.91354       15097.341      6724.9433      48.731617      2.3577398     -153024.31     -152820.97    
     50000   79.769777      14974.768      6724.9433      48.731617      2.3577398     -153013.88     -152825.08    
     50100   79.442029      18312.958      6724.9433      48.731617      2.3577398     -153021.73     -152833.71    
     50200   76.635702      17557.154      6724.9433      48.731617      2.3577398     -153019.85     -152838.48    
     50300   72.367604      23919.344      6724.9433      48.731617      2.3577398     -153015.6      -152844.32    
     50400   74.309873      20005.097      6724.9433      48.731617      2.3577398     -153024.15     -152848.28    
     50500   76.708262      37765.684      6724.9433      48.731617      2.3577398     -153017.71     -152836.16    
     50600   80.22248       7427.0997      6724.9433      48.731617      2.3577398     -153017.85     -152827.98    
     50700   84.291532      10159.409      6724.9433      48.731617      2.3577398     -153029.48     -152829.98    
     50800   79.845513      26391.327      6724.9433      48.731617      2.3577398     -153030.02     -152841.04    
     50900   77.298183      28395.256      6724.9433      48.731617      2.3577398     -153027.67     -152844.72    
     51000   79.351314     -5824.0261      6724.9433      48.731617      2.3577398     -153028.3      -152840.49    
     51100   78.166229      29962.763      6724.9433      48.731617      2.3577398     -153021.96     -152836.96    
     51200   77.516212     -6261.6372      6724.9433      48.731617      2.3577398     -153015.02     -152831.56    
     51300   80.419613      17690.735      6724.9433      48.731617      2.3577398     -153006.49     -152816.15    
     51400   82.811653      11943.235      6724.9433      48.731617      2.3577398     -153003.98     -152807.99    
     51500   78.865209      14710.4        6724.9433      48.731617      2.3577398     -153002.94     -152816.29    
     51600   80.712111      34345.546      6724.9433      48.731617      2.3577398     -153017.37     -152826.35    
     51700   80.812923      28424.7        6724.9433      48.731617      2.3577398     -153027.52     -152836.25    
     51800   79.639943      13331.512      6724.9433      48.731617      2.3577398     -153028.66     -152840.17    
     51900   80.230823      25236.292      6724.9433      48.731617      2.3577398     -153027.56     -152837.67    
     52000   81.642236      5530.8511      6724.9433      48.731617      2.3577398     -153022.46     -152829.23    
     52100   84.244078      20751.45       6724.9433      48.731617      2.3577398     -153017.3      -152817.92    
     52200   81.46329       22397.874      6724.9433      48.731617      2.3577398     -153015.1      -152822.3     
     52300   77.563957      24308.133      6724.9433      48.731617      2.3577398     -153017        -152833.43    
     52400   79.792299      32473.071      6724.9433      48.731617      2.3577398     -153024.26     -152835.41    
     52500   81.532918     -351.58244      6724.9433      48.731617      2.3577398     -153027.03     -152834.06    
     52600   78.07099       15558.836      6724.9433      48.731617      2.3577398     -153020.86     -152836.09    
     52700   78.718958      37103.618      6724.9433      48.731617      2.3577398     -153023.45     -152837.14    
     52800   82.668794      2999.3779      6724.9433      48.731617      2.3577398     -153030.44     -152834.78    
     52900   80.873048      29952.474      6724.9433      48.731617      2.3577398     -153022.16     -152830.76    
     53000   81.602321      15401.515      6724.9433      48.731617      2.3577398     -153017.39     -152824.25    
     53100   82.154577      2961.7785      6724.9433      48.731617      2.3577398     -153012.38     -152817.94    
     53200   81.918906      12127.577      6724.9433      48.731617      2.3577398     -153014.82     -152820.94    
     53300   78.764837      10985.722      6724.9433      48.731617      2.3577398     -153021.42     -152835       
     53400   79.294444     -7094.2438      6724.9433      48.731617      2.3577398     -153025.53     -152837.86    
     53500   80.345802      19746.125      6724.9433      48.731617      2.3577398     -153024.95     -152834.79    
     53600   82.835657      18322.41       6724.9433      48.731617      2.3577398     -153019.2      -152823.14    
     53700   86.380172      23173.636      6724.9433      48.731617      2.3577398     -153027.26     -152822.82    
     53800   79.560704      21297.469      6724.9433      48.731617      2.3577398     -153016.55     -152828.25    
     53900   78.887795      34445.378      6724.9433      48.731617      2.3577398     -153017.37     -152830.67    
     54000   78.863896     -18590.264      6724.9433      48.731617      2.3577398     -153017.8      -152831.15    
     54100   80.123629      35076.552      6724.9433      48.731617      2.3577398     -153025.51     -152835.88    
     54200   78.918417      13579.589      6724.9433      48.731617      2.3577398     -153028.62     -152841.83    
     54300   78.011277      17899.685      6724.9433      48.731617      2.3577398     -153027.95     -152843.32    
     54400   80.821667      1792.1196      6724.9433      48.731617      2.3577398     -153024.49     -152833.21    
     54500   80.326628      53306.056      6724.9433      48.731617      2.3577398     -153013.28     -152823.17    
     54600   85.168977     -16955.281      6724.9433      48.731617      2.3577398     -153026.84     -152825.26    
     54700   80.365562      43219.901      6724.9433      48.731617      2.3577398     -153024.03     -152833.83    
     54800   83.007724      8438.1246      6724.9433      48.731617      2.3577398     -153032.49     -152836.03    
     54900   79.164675      35553.958      6724.9433      48.731617      2.3577398     -153023.31     -152835.95    
     55000   78.768887      14401.151      6724.9433      48.731617      2.3577398     -153021.25     -152834.82    
     55100   81.610668      12890.121      6724.9433      48.731617      2.3577398     -153024.51     -152831.36    
     55200   80.235332      15959.445      6724.9433      48.731617      2.3577398     -153019.4      -152829.5     
     55300   77.792937     -1950.8214      6724.9433      48.731617      2.3577398     -153014.61     -152830.49    
     55400   77.61119       3673.984       6724.9433      48.731617      2.3577398     -153015.02     -152831.33    
     55500   77.554273      6549.4384      6724.9433      48.731617      2.3577398     -153016.94     -152833.39    
     55600   78.108179      18067.389      6724.9433      48.731617      2.3577398     -153024.14     -152839.28    
     55700   75.26332      -2424.8124      6724.9433      48.731617      2.3577398     -153023.05     -152844.92    
     55800   76.595106      24182.215      6724.9433      48.731617      2.3577398     -153024.77     -152843.49    
     55900   80.412318      22594.809      6724.9433      48.731617      2.3577398     -153020.53     -152830.21    
     56000   81.939902      17114.929      6724.9433      48.731617      2.3577398     -153018.55     -152824.62    
     56100   78.802939      7675.3345      6724.9433      48.731617      2.3577398     -153016.71     -152830.21    
     56200   78.331298      21810.327      6724.9433      48.731617      2.3577398     -153021.25     -152835.86    
     56300   78.566506      13440.324      6724.9433      48.731617      2.3577398     -153025.05     -152839.1     
     56400   78.31824       8917.0689      6724.9433      48.731617      2.3577398     -153028.87     -152843.51    
     56500   77.305573      4018.9044      6724.9433      48.731617      2.3577398     -153024.06     -152841.1     
     56600   81.592263      41147.405      6724.9433      48.731617      2.3577398     -153022.41     -152829.3     
     56700   81.990191      26986.78       6724.9433      48.731617      2.3577398     -153019.5      -152825.45    
     56800   79.825404      358.37399      6724.9433      48.731617      2.3577398     -153019.07     -152830.14    
     56900   77.055095      36808.085      6724.9433      48.731617      2.3577398     -153025.18     -152842.81    
     57000   77.261493     -4755.4413      6724.9433      48.731617      2.3577398     -153026.03     -152843.17    
     57100   78.04552       17331.024      6724.9433      48.731617      2.3577398     -153025.61     -152840.89    
     57200   80.726927     -4582.3714      6724.9433      48.731617      2.3577398     -153024.53     -152833.46    
     57300   82.398532      16246.684      6724.9433      48.731617      2.3577398     -153022.75     -152827.73    
     57400   80.938524      6605.575       6724.9433      48.731617      2.3577398     -153018.51     -152826.95    
     57500   81.256941      15357.803      6724.9433      48.731617      2.3577398     -153022.38     -152830.07    
     57600   78.643884      9387.9735      6724.9433      48.731617      2.3577398     -153020.33     -152834.2     
     57700   79.783186      19364.047      6724.9433      48.731617      2.3577398     -153021.8      -152832.97    
     57800   78.512851     -8430.6797      6724.9433      48.731617      2.3577398     -153012.49     -152826.67    
     57900   82.344896      1133.4443      6724.9433      48.731617      2.3577398     -153020.19     -152825.3     
     58000   81.336611      32585.501      6724.9433      48.731617      2.3577398     -153024.83     -152832.32    
     58100   74.586633     -15401.75       6724.9433      48.731617      2.3577398     -153017.22     -152840.69    
     58200   74.244529      26369.703      6724.9433      48.731617      2.3577398     -153018.85     -152843.13    
     58300   80.052198      1910.4951      6724.9433      48.731617      2.3577398     -153016.39     -152826.93    
     58400   78.173163      34485.836      6724.9433      48.731617      2.3577398     -153008.89     -152823.88    
     58500   78.300793     -12138.871      6724.9433      48.731617      2.3577398     -153013.62     -152828.3     
     58600   76.285188      32244.13       6724.9433      48.731617      2.3577398     -153013.63     -152833.08    
     58700   74.899779      2878.0891      6724.9433      48.731617      2.3577398     -153016.8      -152839.53    
     58800   74.984158      19471.6        6724.9433      48.731617      2.3577398     -153021.35     -152843.88    
     58900   82.246116     -12465.997      6724.9433      48.731617      2.3577398     -153029.64     -152834.98    
     59000   81.02758       21738.604      6724.9433      48.731617      2.3577398     -153017.55     -152825.78    
     59100   83.410721     -9322.1177      6724.9433      48.731617      2.3577398     -153020.56     -152823.15    
     59200   78.439666      36347.941      6724.9433      48.731617      2.3577398     -153014.92     -152829.27    
     59300   78.311149     -641.86447      6724.9433      48.731617      2.3577398     -153029.79     -152844.45    
     59400   76.006508      11780.235      6724.9433      48.731617      2.3577398     -153023.24     -152843.35    
     59500   75.436304     -4516.3087      6724.9433      48.731617      2.3577398     -153015.36     -152836.82    
     59600   79.34479       6461.3977      6724.9433      48.731617      2.3577398     -153019.24     -152831.45    
     59700   77.211433     -5693.9332      6724.9433      48.731617      2.3577398     -153014.03     -152831.29    
     59800   80.008646      23083.966      6724.9433      48.731617      2.3577398     -153023        -152833.64    
     59900   75.156123      22063.645      6724.9433      48.731617      2.3577398     -153019.99     -152842.12    
     60000   77.369814      26864.587      6724.9433      48.731617      2.3577398     -153026.57     -152843.45    
     60100   79.39149       3894.9318      6724.9433      48.731617      2.3577398     -153021.27     -152833.37    
     60200   82.285697      26359.388      6724.9433      48.731617      2.3577398     -153019.48     -152824.73    
     60300   81.595052      16290.499      6724.9433      48.731617      2.3577398     -153019.6      -152826.48    
     60400   78.302936      19764          6724.9433      48.731617      2.3577398     -153018.49     -152833.17    
     60500   81.413932      204.38799      6724.9433      48.731617      2.3577398     -153029.38     -152836.7     
     60600   81.283196      44433.947      6724.9433      48.731617      2.3577398     -153028.88     -152836.5     
     60700   83.288531     -12463.015      6724.9433      48.731617      2.3577398     -153032.63     -152835.51    
     60800   79.680313      17.507663      6724.9433      48.731617      2.3577398     -153024.43     -152835.84    
     60900   78.87598       618.44387      6724.9433      48.731617      2.3577398     -153022.41     -152835.73    
     61000   77.882166      20315.765      6724.9433      48.731617      2.3577398     -153015.43     -152831.1     
     61100   82.757278      8212.3387      6724.9433      48.731617      2.3577398     -153019.1      -152823.23    
     61200   82.425119      14432.743      6724.9433      48.731617      2.3577398     -153019.33     -152824.25    
     61300   77.843637      1088.1549      6724.9433      48.731617      2.3577398     -153022.57     -152838.33    
     61400   78.211038      27861.647      6724.9433      48.731617      2.3577398     -153025.95     -152840.84    
     61500   80.763424      6366.9315      6724.9433      48.731617      2.3577398     -153028.06     -152836.91    
     61600   79.038467      13123.381      6724.9433      48.731617      2.3577398     -153021.84     -152834.77    
     61700   80.094693      20551.438      6724.9433      48.731617      2.3577398     -153019.61     -152830.05    
     61800   80.602142      20123.926      6724.9433      48.731617      2.3577398     -153015.44     -152824.67    
     61900   81.262119      639.21996      6724.9433      48.731617      2.3577398     -153015.1      -152822.78    
     62000   78.520461      20457.464      6724.9433      48.731617      2.3577398     -153016.5      -152830.66    
     62100   78.387222      29949.208      6724.9433      48.731617      2.3577398     -153022.84     -152837.32    
     62200   80.114378      25039.04       6724.9433      48.731617      2.3577398     -153026.28     -152836.66    
     62300   82.547291      18979.834      6724.9433      48.731617      2.3577398     -153016.89     -152821.52    
     62400   83.547493      29447.474      6724.9433      48.731617      2.3577398     -153017.68     -152819.94    
     62500   83.331943      14455.233      6724.9433      48.731617      2.3577398     -153025.92     -152828.7     
     62600   82.288634      14735.142      6724.9433      48.731617      2.3577398     -153031.02     -152836.26    
     62700   78.887274      14716.292      6724.9433      48.731617      2.3577398     -153021.41     -152834.71    
     62800   77.910647     -24040.662      6724.9433      48.731617      2.3577398     -153017.47     -152833.07    
     62900   79.125633      21593.358      6724.9433      48.731617      2.3577398     -153019.44     -152832.16    
     63000   79.789894      2059.6014      6724.9433      48.731617      2.3577398     -153008.28     -152819.44    
     63100   85.679675      24160.705      6724.9433      48.731617      2.3577398     -153016.57     -152813.79    
     63200   80.597157      11741.283      6724.9433      48.731617      2.3577398     -153016.18     -152825.43    
     63300   79.981297      39493.578      6724.9433      48.731617      2.3577398     -153022.26     -152832.96    
     63400   78.843902      14939.404      6724.9433      48.731617      2.3577398     -153021.31     -152834.7     
     63500   78.804262      10455.827      6724.9433      48.731617      2.3577398     -153017.77     -152831.26    
     63600   83.554119      12693.135      6724.9433      48.731617      2.3577398     -153017.9      -152820.15    
     63700   82.5221        33597.221      6724.9433      48.731617      2.3577398     -153008.68     -152813.37    
     63800   81.201122      8402.713       6724.9433      48.731617      2.3577398     -153016.52     -152824.34    
     63900   79.47833       12518.816      6724.9433      48.731617      2.3577398     -153020.93     -152832.82    
     64000   82.063257     -6566.1634      6724.9433      48.731617      2.3577398     -153028.08     -152833.85    
     64100   78.749062     -599.8112       6724.9433      48.731617      2.3577398     -153024.33     -152837.95    
     64200   80.0465        10454.183      6724.9433      48.731617      2.3577398     -153027.45     -152838       
     64300   79.738347      7339.0654      6724.9433      48.731617      2.3577398     -153018.76     -152830.03    
     64400   82.110825      20900.89       6724.9433      48.731617      2.3577398     -153016.31     -152821.97    
     64500   78.651366      24142.927      6724.9433      48.731617      2.3577398     -153011.59     -152825.44    
[...]
    384200   82.657824      26788.358      6724.9433      48.731617      2.3577398     -153020.21     -152824.58    
    384300   82.370966      12544.446      6724.9433      48.731617      2.3577398     -153024.35     -152829.39    
    384400   80.412359      14580.263      6724.9433      48.731617      2.3577398     -153027.36     -152837.04    
    384500   79.181142      15043.084      6724.9433      48.731617      2.3577398     -153027.56     -152840.16    
    384600   78.564996      37437.526      6724.9433      48.731617      2.3577398     -153021.7      -152835.76    
    384700   81.955382     -6190.4044      6724.9433      48.731617      2.3577398     -153016.71     -152822.74    
    384800   81.072738      54614.613      6724.9433      48.731617      2.3577398     -153016.72     -152824.84    
    384900   80.709852      1237.8108      6724.9433      48.731617      2.3577398     -153024.64     -152833.62    
    385000   77.008319      29144.93       6724.9433      48.731617      2.3577398     -153023.36     -152841.1     
    385100   80.141257     -18180.565      6724.9433      48.731617      2.3577398     -153030.26     -152840.58    
    385200   82.840974      65062.931      6724.9433      48.731617      2.3577398     -153034.63     -152838.56    
    385300   79.382692      4082.2495      6724.9433      48.731617      2.3577398     -153024.25     -152836.37    
    385400   81.283766      36016.81       6724.9433      48.731617      2.3577398     -153028.1      -152835.72    
    385500   82.379757      20818.974      6724.9433      48.731617      2.3577398     -153029.03     -152834.06    
    385600   81.626278      22032.04       6724.9433      48.731617      2.3577398     -153027.69     -152834.5     
    385700   81.190431      10751.488      6724.9433      48.731617      2.3577398     -153025.85     -152833.69    
    385800   80.319221      33078.532      6724.9433      48.731617      2.3577398     -153022.36     -152832.26    
    385900   82.615056      13940.692      6724.9433      48.731617      2.3577398     -153023.99     -152828.46    
    386000   80.426332      35662.27       6724.9433      48.731617      2.3577398     -153018.43     -152828.08    
    386100   80.791089      11041.745      6724.9433      48.731617      2.3577398     -153025.78     -152834.57    
    386200   78.288126      24288.227      6724.9433      48.731617      2.3577398     -153029.84     -152844.56    
    386300   80.28473       26423.855      6724.9433      48.731617      2.3577398     -153032.71     -152842.7     
    386400   80.558322      3163.3483      6724.9433      48.731617      2.3577398     -153021.18     -152830.52    
    386500   81.691509      43555.563      6724.9433      48.731617      2.3577398     -153013.2      -152819.86    
    386600   79.824011      8395.7404      6724.9433      48.731617      2.3577398     -153010.43     -152821.5     
    386700   78.849805      40861.07       6724.9433      48.731617      2.3577398     -153016.51     -152829.89    
    386800   79.482444     -3507.9139      6724.9433      48.731617      2.3577398     -153024.83     -152836.72    
    386900   77.242004      31376.473      6724.9433      48.731617      2.3577398     -153019.4      -152836.59    
    387000   81.602327      3660.4419      6724.9433      48.731617      2.3577398     -153026.37     -152833.24    
    387100   80.866197      30195.919      6724.9433      48.731617      2.3577398     -153025.38     -152833.99    
    387200   79.004606      3329.984       6724.9433      48.731617      2.3577398     -153021.97     -152834.99    
    387300   81.517912      30841.645      6724.9433      48.731617      2.3577398     -153028.93     -152836       
    387400   77.223246      8743.0732      6724.9433      48.731617      2.3577398     -153018.44     -152835.67    
    387500   81.06505       21809.601      6724.9433      48.731617      2.3577398     -153022.15     -152830.29    
    387600   83.123973      12911.999      6724.9433      48.731617      2.3577398     -153016.78     -152820.04    
    387700   83.495187      31763.008      6724.9433      48.731617      2.3577398     -153016.13     -152818.52    
    387800   77.045895     -13013.812      6724.9433      48.731617      2.3577398     -153014.54     -152832.19    
    387900   78.599902      42398.479      6724.9433      48.731617      2.3577398     -153023.58     -152837.55    
    388000   80.812188      13636.397      6724.9433      48.731617      2.3577398     -153024.68     -152833.41    
    388100   81.029358      13325.915      6724.9433      48.731617      2.3577398     -153024.57     -152832.79    
    388200   80.264629      25570.464      6724.9433      48.731617      2.3577398     -153021.96     -152831.99    
    388300   82.188408      16514.42       6724.9433      48.731617      2.3577398     -153019.14     -152824.62    
    388400   79.761417      20179.176      6724.9433      48.731617      2.3577398     -153012.78     -152824       
    388500   79.986846      16826.535      6724.9433      48.731617      2.3577398     -153020.28     -152830.97    
    388600   80.44727      -7602.4668      6724.9433      48.731617      2.3577398     -153032.74     -152842.34    
    388700   75.306678      33977.658      6724.9433      48.731617      2.3577398     -153022.59     -152844.35    
    388800   80.42642      -8643.3462      6724.9433      48.731617      2.3577398     -153026.87     -152836.52    
    388900   81.906217      32722.496      6724.9433      48.731617      2.3577398     -153025.7      -152831.85    
    389000   84.270342      22561.237      6724.9433      48.731617      2.3577398     -153029.17     -152829.73    
    389100   83.408513      16282.758      6724.9433      48.731617      2.3577398     -153029.73     -152832.32    
    389200   80.09728       23324.553      6724.9433      48.731617      2.3577398     -153033.03     -152843.46    
    389300   75.548075      7074.3592      6724.9433      48.731617      2.3577398     -153030.51     -152851.7     
    389400   79.380294      40513.643      6724.9433      48.731617      2.3577398     -153034.52     -152846.64    
    389500   77.977788     -8066.1461      6724.9433      48.731617      2.3577398     -153026.49     -152841.93    
    389600   79.755253      31041.201      6724.9433      48.731617      2.3577398     -153023.42     -152834.66    
    389700   84.47159       6172.0451      6724.9433      48.731617      2.3577398     -153025.34     -152825.42    
    389800   83.126729      26788.05       6724.9433      48.731617      2.3577398     -153022.17     -152825.43    
    389900   81.019329      2834.3215      6724.9433      48.731617      2.3577398     -153024.72     -152832.97    
    390000   77.601611      28770.455      6724.9433      48.731617      2.3577398     -153025.05     -152841.38    
    390100   79.000028      9078.2004      6724.9433      48.731617      2.3577398     -153027.58     -152840.61    
    390200   77.283833      40187.079      6724.9433      48.731617      2.3577398     -153019.03     -152836.11    
    390300   81.564607      5099.8009      6724.9433      48.731617      2.3577398     -153020.16     -152827.11    
    390400   81.916952      25446.895      6724.9433      48.731617      2.3577398     -153017.81     -152823.94    
    390500   81.392885      28197.095      6724.9433      48.731617      2.3577398     -153020.35     -152827.71    
    390600   78.103047      23790.426      6724.9433      48.731617      2.3577398     -153029.03     -152844.18    
    390700   76.914598      11092.259      6724.9433      48.731617      2.3577398     -153025.33     -152843.29    
    390800   80.275042      19142.506      6724.9433      48.731617      2.3577398     -153024.38     -152834.39    
    390900   77.944685      10708.792      6724.9433      48.731617      2.3577398     -153013.31     -152828.84    
    391000   80.587254      23919.741      6724.9433      48.731617      2.3577398     -153016.74     -152826.01    
    391100   78.060771      39460.883      6724.9433      48.731617      2.3577398     -153021.72     -152836.97    
    391200   78.738396      4940.7031      6724.9433      48.731617      2.3577398     -153033.14     -152846.78    
    391300   79.895146      35441.589      6724.9433      48.731617      2.3577398     -153030.61     -152841.51    
    391400   78.969089     -14464.584      6724.9433      48.731617      2.3577398     -153019.38     -152832.48    
    391500   80.634361      24491.097      6724.9433      48.731617      2.3577398     -153017.86     -152827.01    
    391600   79.296109     -11918.208      6724.9433      48.731617      2.3577398     -153015.6      -152827.93    
    391700   77.086195      618.43275      6724.9433      48.731617      2.3577398     -153014.51     -152832.07    
    391800   78.747386      20108.258      6724.9433      48.731617      2.3577398     -153019.3      -152832.93    
    391900   76.917247      14356.562      6724.9433      48.731617      2.3577398     -153014.7      -152832.65    
    392000   79.452226     -5030.0185      6724.9433      48.731617      2.3577398     -153019.28     -152831.24    
    392100   79.389531      41671.291      6724.9433      48.731617      2.3577398     -153018.61     -152830.72    
    392200   78.474555      15094.869      6724.9433      48.731617      2.3577398     -153018.12     -152832.39    
    392300   79.216515      21962.393      6724.9433      48.731617      2.3577398     -153024.39     -152836.9     
    392400   77.864023      7488.6112      6724.9433      48.731617      2.3577398     -153034.96     -152850.67    
    392500   76.692455      5781.9889      6724.9433      48.731617      2.3577398     -153034.38     -152852.87    
    392600   79.641221      23087.073      6724.9433      48.731617      2.3577398     -153029.19     -152840.7     
    392700   76.384952     -4913.6435      6724.9433      48.731617      2.3577398     -153016.48     -152835.69    
    392800   77.538117      11297.514      6724.9433      48.731617      2.3577398     -153014.55     -152831.04    
    392900   79.885107      18000.879      6724.9433      48.731617      2.3577398     -153017.3      -152828.24    
    393000   80.466266      20789.524      6724.9433      48.731617      2.3577398     -153024.28     -152833.84    
    393100   78.212684      41339.218      6724.9433      48.731617      2.3577398     -153029.77     -152844.66    
    393200   77.714402      3946.9787      6724.9433      48.731617      2.3577398     -153028.35     -152844.42    
    393300   77.865366      16730.151      6724.9433      48.731617      2.3577398     -153016.26     -152831.97    
    393400   82.199224      17280.154      6724.9433      48.731617      2.3577398     -153021.22     -152826.67    
    393500   82.350585      20722.39       6724.9433      48.731617      2.3577398     -153023.78     -152828.87    
    393600   80.557251      8501.8431      6724.9433      48.731617      2.3577398     -153026.38     -152835.72    
    393700   78.460168      25251.824      6724.9433      48.731617      2.3577398     -153027.74     -152842.04    
    393800   75.939257      5462.775       6724.9433      48.731617      2.3577398     -153024.39     -152844.66    
    393900   78.819626      16595.548      6724.9433      48.731617      2.3577398     -153026.55     -152840       
    394000   81.253279      17460.373      6724.9433      48.731617      2.3577398     -153021.98     -152829.67    
    394100   82.797368      38089.925      6724.9433      48.731617      2.3577398     -153021.46     -152825.5     
    394200   82.332811      1979.118       6724.9433      48.731617      2.3577398     -153027.16     -152832.3     
    394300   78.380613      27189.246      6724.9433      48.731617      2.3577398     -153028.98     -152843.47    
    394400   78.867716      19771.554      6724.9433      48.731617      2.3577398     -153028.56     -152841.9     
    394500   82.145737      21621.623      6724.9433      48.731617      2.3577398     -153029.82     -152835.4     
    394600   83.386147      21859.439      6724.9433      48.731617      2.3577398     -153030.33     -152832.97    
    394700   83.036666      2073.2147      6724.9433      48.731617      2.3577398     -153030.58     -152834.06    
    394800   78.994941      36791.696      6724.9433      48.731617      2.3577398     -153027.23     -152840.26    
    394900   78.335756      9898.2191      6724.9433      48.731617      2.3577398     -153034.47     -152849.07    
    395000   77.04927       19205.315      6724.9433      48.731617      2.3577398     -153026.75     -152844.39    
    395100   82.477794      877.21169      6724.9433      48.731617      2.3577398     -153026.71     -152831.51    
    395200   82.084227      52363.312      6724.9433      48.731617      2.3577398     -153021.86     -152827.59    
    395300   82.653649     -14186.914      6724.9433      48.731617      2.3577398     -153021.92     -152826.3     
    395400   77.938664      61556.667      6724.9433      48.731617      2.3577398     -153022.07     -152837.61    
    395500   79.055176     -11964.448      6724.9433      48.731617      2.3577398     -153029.92     -152842.82    
    395600   78.500581      54243.653      6724.9433      48.731617      2.3577398     -153026.38     -152840.59    
    395700   78.529147      13930.683      6724.9433      48.731617      2.3577398     -153021.03     -152835.17    
    395800   81.262802      50423.563      6724.9433      48.731617      2.3577398     -153023.45     -152831.12    
    395900   79.41911      -10728.888      6724.9433      48.731617      2.3577398     -153020.87     -152832.91    
    396000   76.040318      50633.8        6724.9433      48.731617      2.3577398     -153015.82     -152835.85    
    396100   76.1655        522.33481      6724.9433      48.731617      2.3577398     -153025.31     -152845.05    
    396200   75.071568      18646.087      6724.9433      48.731617      2.3577398     -153026.57     -152848.89    
    396300   82.515584      6118.8297      6724.9433      48.731617      2.3577398     -153033.99     -152838.7     
    396400   79.37969       39476.565      6724.9433      48.731617      2.3577398     -153020.02     -152832.14    
    396500   78.770986      17598.814      6724.9433      48.731617      2.3577398     -153016.51     -152830.07    
    396600   76.940523      33584.218      6724.9433      48.731617      2.3577398     -153014.46     -152832.36    
    396700   77.982068      9967.1549      6724.9433      48.731617      2.3577398     -153020.05     -152835.48    
    396800   76.251757      18113.347      6724.9433      48.731617      2.3577398     -153028.61     -152848.14    
    396900   80.662097      17182.703      6724.9433      48.731617      2.3577398     -153040.17     -152849.27    
    397000   77.320029      5353.18        6724.9433      48.731617      2.3577398     -153022.46     -152839.46    
    397100   81.089821      13737.675      6724.9433      48.731617      2.3577398     -153021.88     -152829.96    
    397200   80.921972      14324.688      6724.9433      48.731617      2.3577398     -153020.59     -152829.07    
    397300   79.632161      14637.413      6724.9433      48.731617      2.3577398     -153019.56     -152831.09    
    397400   79.485553      18474.309      6724.9433      48.731617      2.3577398     -153019.37     -152831.25    
    397500   77.854524      22306.89       6724.9433      48.731617      2.3577398     -153020.13     -152835.87    
    397600   78.151598      26729.18       6724.9433      48.731617      2.3577398     -153026.54     -152841.57    
    397700   77.598993      15568.897      6724.9433      48.731617      2.3577398     -153027.75     -152844.1     
    397800   82.275812      39569.78       6724.9433      48.731617      2.3577398     -153029.23     -152834.5     
    397900   82.172837      14905.292      6724.9433      48.731617      2.3577398     -153019.22     -152824.73    
    398000   84.197344      37547.813      6724.9433      48.731617      2.3577398     -153024.99     -152825.72    
    398100   79.535851      12893.958      6724.9433      48.731617      2.3577398     -153020.76     -152832.51    
    398200   76.751396      4975.1459      6724.9433      48.731617      2.3577398     -153022.27     -152840.61    
    398300   74.75468       15448.725      6724.9433      48.731617      2.3577398     -153033.33     -152856.4     
    398400   75.060765      22712.998      6724.9433      48.731617      2.3577398     -153029.65     -152852       
    398500   78.55454       6287.1662      6724.9433      48.731617      2.3577398     -153028.8      -152842.88    
    398600   76.418682      12983.917      6724.9433      48.731617      2.3577398     -153017.08     -152836.21    
    398700   80.10994       20277.24       6724.9433      48.731617      2.3577398     -153018.66     -152829.06    
    398800   81.927777      8255.4309      6724.9433      48.731617      2.3577398     -153018.18     -152824.28    
    398900   81.062749      26434.326      6724.9433      48.731617      2.3577398     -153022.94     -152831.08    
    399000   76.097612      1380.7195      6724.9433      48.731617      2.3577398     -153027.56     -152847.46    
    399100   77.332814      31047.296      6724.9433      48.731617      2.3577398     -153030.8      -152847.77    
    399200   74.783804      11315.246      6724.9433      48.731617      2.3577398     -153017.61     -152840.61    
    399300   81.502635      29313.895      6724.9433      48.731617      2.3577398     -153025.55     -152832.66    
    399400   81.31074       4733.5415      6724.9433      48.731617      2.3577398     -153024.08     -152831.64    
    399500   80.377728      24478.963      6724.9433      48.731617      2.3577398     -153023.65     -152833.42    
    399600   79.873931      6323.6087      6724.9433      48.731617      2.3577398     -153021.74     -152832.69    
    399700   78.00775       22244.213      6724.9433      48.731617      2.3577398     -153020.77     -152836.14    
    399800   75.422564      13585.618      6724.9433      48.731617      2.3577398     -153018.5      -152839.99    
    399900   77.852767      12006.136      6724.9433      48.731617      2.3577398     -153020.83     -152836.57    
    400000   80.588057      752.88932      6724.9433      48.731617      2.3577398     -153021.08     -152830.35    
    400011   80.368855     -7375.6318      6724.9433      48.731617      2.3577398     -153019.49     -152829.28    
Loop time of 15491.9 on 64 procs for 400000 steps with 795 atoms

Performance: 0.558 ns/day, 43.033 hours/ns, 25.820 timesteps/s
99.6% CPU use with 64 MPI tasks x 1 OpenMP threads

MPI task timing breakdown:
Section |  min time  |  avg time  |  max time  |%varavg| %total
---------------------------------------------------------------
Pair    | 8774.1     | 11084      | 14168      |1414.7 | 71.55
Neigh   | 22.756     | 29.196     | 36.347     |  68.1 |  0.19
Comm    | 143.53     | 2829.5     | 5388       |2621.0 | 18.26
Output  | 0.5021     | 1.8153     | 2.6244     |  64.3 |  0.01
Modify  | 1136.4     | 1544.5     | 2528.9     |1027.7 |  9.97
Other   |            | 2.804      |            |       |  0.02

Nlocal:        12.4219 ave          16 max           7 min
Histogram: 1 1 1 11 3 18 8 8 12 1
Nghost:        2194.55 ave        2515 max        1919 min
Histogram: 6 10 0 9 11 12 2 6 3 5
Neighs:        6824.45 ave        9048 max        3380 min
Histogram: 2 2 3 8 9 6 9 7 5 13

Total # of neighbors = 436765
Ave neighs/atom = 549.38994
Neighbor list builds = 2726
Dangerous builds = 0

write_data graphene_single_layer_ReaxFF_750_C_temp_80K.data ### MODIFY FILE NAME ###
System init for write_data ...
Total wall time: 4:18:14
