
# System definition
read_data graphene_single_layer_x-45_y-45_795_C.data ### MODIFY FILE NAME ###
Reading data file ...
  orthogonal box = (-1.4464652 -1.4423034 -1.42) to (47.285152 47.149102 1.42)
  8 by 8 by 1 MPI processor grid
  reading atoms ...
  795 atoms
  reading velocities ...
  795 velocities
  read_data CPU = 0.031 seconds

pair_style reax/c NULL
pair_coeff * * ffield.reax.cho C
Reading potential file ffield.reax.cho with DATE: 2011-02-18
fix qeq_reax all qeq/reax 1 0.0 10.0 1.0e-6 reax/c


# Minimization
timestep 0.25
min_style cg
thermo 100
thermo_style custom step temp press vol lx density pe etotal
dump 2 all custom 1000 graphene_single_layer_ReaxFF_795_C_temp_300K.lammpstrj id type x y z ### MODIFY FILE NAME ###
minimize 1.0e-6 1.0e-6 100 1000

CITE-CITE-CITE-CITE-CITE-CITE-CITE-CITE-CITE-CITE-CITE-CITE-CITE

Your simulation uses code contributions which should be cited:

- pair reaxff command:

@Article{Aktulga12,
 author = {H. M. Aktulga, J. C. Fogarty, S. A. Pandit, A. Y. Grama},
 title = {Parallel reactive molecular dynamics: Numerical methods and algorithmic techniques},
 journal = {Parallel Computing},
 year =    2012,
 volume =  38,
 pages =   {245--259}
}

- fix qeq/reaxff command:

@Article{Aktulga12,
 author = {H. M. Aktulga, J. C. Fogarty, S. A. Pandit, A. Y. Grama},
 title = {Parallel reactive molecular dynamics: Numerical methods and algorithmic techniques},
 journal = {Parallel Computing},
 year =    2012,
 volume =  38,
 pages =   {245--259}
}

CITE-CITE-CITE-CITE-CITE-CITE-CITE-CITE-CITE-CITE-CITE-CITE-CITE

WARNING: Using 'neigh_modify every 1 delay 0 check yes' setting during minimization (src/min.cpp:187)
Neighbor list info ...
  update every 1 steps, delay 0 steps, check yes
  max neighbors/atom: 10000, page size: 100000
  master list distance cutoff = 10.4
  ghost atom cutoff = 10.4
  binsize = 5.2, bins = 10 10 1
  2 neighbor lists, perpetual/occasional/extra = 2 0 0
  (1) pair reax/c, perpetual
      attributes: half, newton off, ghost
      pair build: half/bin/newtoff/ghost
      stencil: full/ghost/bin/3d
      bin: standard
  (2) fix qeq/reax, perpetual, copy from (1)
      attributes: half, newton off
      pair build: copy
      stencil: none
      bin: none
Per MPI rank memory allocation (min/avg/max) = 36.37 | 41.41 | 47.38 Mbytes
   Step          Temp          Press          Volume           Lx          Density         PotEng         TotEng    
         0   923            34054.396      6724.9433      48.731617      2.3577398     -151766.67     -149582.14    
        11   923            35396.792      6724.9433      48.731617      2.3577398     -151904.55     -149720.03    
Loop time of 2.2376 on 64 procs for 11 steps with 795 atoms

99.4% CPU use with 64 MPI tasks x 1 OpenMP threads

Minimization stats:
  Stopping criterion = energy tolerance
  Energy initial, next-to-last, final = 
     -151766.666472543  -151904.508881892  -151904.547898656
  Force two-norm initial, final = 279.94165 356.09863
  Force max component initial, final = 137.99181 55.448555
  Final line search alpha, max atom move = 0.00038853166 0.021543519
  Iterations, force evaluations = 11 32

MPI task timing breakdown:
Section |  min time  |  avg time  |  max time  |%varavg| %total
---------------------------------------------------------------
Pair    | 0.79532    | 1.2109     | 1.733      |  18.6 | 54.11
Neigh   | 0.01208    | 0.01849    | 0.025689   |   2.2 |  0.83
Comm    | 0.16621    | 0.55167    | 1.0123     |  26.8 | 24.65
Output  | 0          | 0          | 0          |   0.0 |  0.00
Modify  | 0.30842    | 0.31567    | 0.32207    |   0.6 | 14.11
Other   |            | 0.1409     |            |       |  6.30

Nlocal:        12.4219 ave          15 max          10 min
Histogram: 15 0 0 0 22 0 12 0 0 15
Nghost:        2194.12 ave        2559 max        1869 min
Histogram: 2 8 9 4 12 12 5 4 6 2
Neighs:        6807.34 ave        8856 max        4476 min
Histogram: 4 8 3 7 7 13 5 2 0 15

Total # of neighbors = 435670
Ave neighs/atom = 548.01258
Neighbor list builds = 1
Dangerous builds = 0

fix 1 all nvt temp 300.0 300.0 $(100.0*dt)  ### MODIFY INIT TEMP, FINAL TEMP ###
fix 1 all nvt temp 300.0 300.0 25  
run 400000
Per MPI rank memory allocation (min/avg/max) = 35.25 | 40.29 | 46.26 Mbytes
   Step          Temp          Press          Volume           Lx          Density         PotEng         TotEng    
        11   923            35396.792      6724.9433      48.731617      2.3577398     -151904.55     -149720.03    
       100   496.78083      44746.926      6724.9433      48.731617      2.3577398     -151136.05     -149960.28    
       200   397.39631      155656.76      6724.9433      48.731617      2.3577398     -151249.73     -150309.18    
       300   429.02803     -94631.182      6724.9433      48.731617      2.3577398     -151638.15     -150622.74    
       400   377.71119      49153.811      6724.9433      48.731617      2.3577398     -151799.07     -150905.12    
       500   341.06822      23398.454      6724.9433      48.731617      2.3577398     -151979.56     -151172.33    
       600   303.40616      23043.693      6724.9433      48.731617      2.3577398     -152099.27     -151381.18    
       700   294.93949      51935.31       6724.9433      48.731617      2.3577398     -152221.34     -151523.29    
       800   288.79723      14205.323      6724.9433      48.731617      2.3577398     -152276.17     -151592.65    
       900   276.06403      20124.234      6724.9433      48.731617      2.3577398     -152257.55     -151604.17    
      1000   309.63556      47256.995      6724.9433      48.731617      2.3577398     -152286.19     -151553.36    
      1100   310.8935      -18999.157      6724.9433      48.731617      2.3577398     -152232.17     -151496.36    
      1200   308.92874      36307.336      6724.9433      48.731617      2.3577398     -152212.53     -151481.37    
      1300   301.35337      46530.651      6724.9433      48.731617      2.3577398     -152246.67     -151533.43    
      1400   302.41841      6419.3796      6724.9433      48.731617      2.3577398     -152317.37     -151601.62    
      1500   286.21305      4611.9379      6724.9433      48.731617      2.3577398     -152307.95     -151630.55    
      1600   287.18847     -33327.645      6724.9433      48.731617      2.3577398     -152289.8      -151610.09    
      1700   291.38979      37051.934      6724.9433      48.731617      2.3577398     -152256.7      -151567.05    
      1800   313.03168      54868.885      6724.9433      48.731617      2.3577398     -152278.57     -151537.69    
      1900   300.82223      8147.2144      6724.9433      48.731617      2.3577398     -152267.45     -151555.48    
      2000   289.3411       27777.186      6724.9433      48.731617      2.3577398     -152287.68     -151602.88    
      2100   285.40928      20182.515      6724.9433      48.731617      2.3577398     -152303.57     -151628.07    
      2200   295.14589     -6093.0524      6724.9433      48.731617      2.3577398     -152309.31     -151610.77    
      2300   316.57179      79202.666      6724.9433      48.731617      2.3577398     -152307.21     -151557.96    
      2400   315.31758      7503.1197      6724.9433      48.731617      2.3577398     -152289.24     -151542.96    
      2500   302.29646      78365.236      6724.9433      48.731617      2.3577398     -152280.58     -151565.12    
      2600   312.77371      46460.419      6724.9433      48.731617      2.3577398     -152329.79     -151589.53    
      2700   297.23309      2011.6021      6724.9433      48.731617      2.3577398     -152305.26     -151601.78    
      2800   304.72087     -14975.954      6724.9433      48.731617      2.3577398     -152321.19     -151599.99    
      2900   308.47651      5218.0346      6724.9433      48.731617      2.3577398     -152322.07     -151591.98    
      3000   303.55157      30147.411      6724.9433      48.731617      2.3577398     -152293.97     -151575.53    
      3100   306.50981      48202.438      6724.9433      48.731617      2.3577398     -152288.36     -151562.93    
      3200   310.08461      5151.9031      6724.9433      48.731617      2.3577398     -152313.23     -151579.34    
      3300   288.92127      16071.849      6724.9433      48.731617      2.3577398     -152300.02     -151616.21    
      3400   304.82336      23629.527      6724.9433      48.731617      2.3577398     -152346.13     -151624.68    
      3500   299.6935       10647.691      6724.9433      48.731617      2.3577398     -152315.21     -151605.9     
      3600   308.80092      17325.455      6724.9433      48.731617      2.3577398     -152310.75     -151579.9     
      3700   306.12519     -813.78782      6724.9433      48.731617      2.3577398     -152293.63     -151569.1     
      3800   315.79105      41025.834      6724.9433      48.731617      2.3577398     -152324.6      -151577.2     
      3900   288.46702     -13844.767      6724.9433      48.731617      2.3577398     -152293.84     -151611.11    
      4000   302.90242      1158.7895      6724.9433      48.731617      2.3577398     -152346.57     -151629.67    
      4100   292.84118      86710.955      6724.9433      48.731617      2.3577398     -152321.16     -151628.07    
      4200   306.69108      5103.5559      6724.9433      48.731617      2.3577398     -152306.91     -151581.05    
      4300   299.8684       11134.681      6724.9433      48.731617      2.3577398     -152270.86     -151561.14    
      4400   307.05218      38638.079      6724.9433      48.731617      2.3577398     -152300.26     -151573.54    
      4500   284.5168      -3166.7565      6724.9433      48.731617      2.3577398     -152266.4      -151593.02    
      4600   298.22042      70027.986      6724.9433      48.731617      2.3577398     -152304.8      -151598.98    
      4700   299.65378      54252.519      6724.9433      48.731617      2.3577398     -152304.63     -151595.42    
      4800   306.05955     -12544.001      6724.9433      48.731617      2.3577398     -152319.22     -151594.85    
      4900   303.85476      87017.244      6724.9433      48.731617      2.3577398     -152322.3      -151603.15    
      5000   308.56719     -951.23371      6724.9433      48.731617      2.3577398     -152350.75     -151620.45    
      5100   299.1898      -34766.171      6724.9433      48.731617      2.3577398     -152366.2      -151658.09    
      5200   290.36479      37988.919      6724.9433      48.731617      2.3577398     -152387.69     -151700.47    
      5300   301.72703     -22190.33       6724.9433      48.731617      2.3577398     -152422.85     -151708.74    
      5400   297.16232     -3688.9943      6724.9433      48.731617      2.3577398     -152398.03     -151694.72    
      5500   309.17696      34756.394      6724.9433      48.731617      2.3577398     -152386.3      -151654.55    
      5600   310.56606      10519.858      6724.9433      48.731617      2.3577398     -152359.66     -151624.62    
      5700   291.63704     -6143.1023      6724.9433      48.731617      2.3577398     -152342.57     -151652.34    
      5800   298.30594      7909.3486      6724.9433      48.731617      2.3577398     -152414.96     -151708.94    
      5900   302.72078      22204.624      6724.9433      48.731617      2.3577398     -152425.73     -151709.27    
      6000   290.05799      23989.823      6724.9433      48.731617      2.3577398     -152389.72     -151703.22    
      6100   305.44667     -1634.763       6724.9433      48.731617      2.3577398     -152394.51     -151671.59    
      6200   311.16882      11558.504      6724.9433      48.731617      2.3577398     -152384.71     -151648.25    
      6300   303.21116      57389.896      6724.9433      48.731617      2.3577398     -152391.97     -151674.34    
      6400   290.51333      20401.215      6724.9433      48.731617      2.3577398     -152413.95     -151726.37    
      6500   289.57687     -5232.0428      6724.9433      48.731617      2.3577398     -152411.06     -151725.7     
      6600   294.73409      8136.2921      6724.9433      48.731617      2.3577398     -152410.34     -151712.78    
      6700   305.75827     -25838.078      6724.9433      48.731617      2.3577398     -152394.85     -151671.19    
      6800   321.86566     -30315.323      6724.9433      48.731617      2.3577398     -152404.74     -151642.96    
      6900   308.35311      50316.915      6724.9433      48.731617      2.3577398     -152394.22     -151664.42    
      7000   314.41491      12639.88       6724.9433      48.731617      2.3577398     -152433.69     -151689.55    
      7100   312.52163      23770.102      6724.9433      48.731617      2.3577398     -152453.41     -151713.74    
      7200   292.29667      27769.98       6724.9433      48.731617      2.3577398     -152418.59     -151726.79    
      7300   299.83616     -23669.413      6724.9433      48.731617      2.3577398     -152437.42     -151727.78    
      7400   299.6365      -16121.466      6724.9433      48.731617      2.3577398     -152420.6      -151711.44    
      7500   298.31721      45061.433      6724.9433      48.731617      2.3577398     -152391.24     -151685.19    
      7600   304.18975      3982.6483      6724.9433      48.731617      2.3577398     -152382.42     -151662.47    
      7700   298.62034     -34552.502      6724.9433      48.731617      2.3577398     -152383.26     -151676.49    
      7800   288.47752      15038.378      6724.9433      48.731617      2.3577398     -152412.45     -151729.69    
      7900   296.55558     -39338.396      6724.9433      48.731617      2.3577398     -152443.03     -151741.16    
      8000   290.57622      37672.43       6724.9433      48.731617      2.3577398     -152420.57     -151732.85    
      8100   294.00982      26588.421      6724.9433      48.731617      2.3577398     -152387.04     -151691.19    
      8200   314.38018     -17222.596      6724.9433      48.731617      2.3577398     -152413.43     -151669.37    
      8300   306.43942      10293.704      6724.9433      48.731617      2.3577398     -152411.43     -151686.17    
      8400   289.02448      21352.954      6724.9433      48.731617      2.3577398     -152389.76     -151705.71    
      8500   293.07439      25105.758      6724.9433      48.731617      2.3577398     -152410.67     -151717.03    
      8600   296.91497      28776.785      6724.9433      48.731617      2.3577398     -152448.25     -151745.52    
      8700   296.09593     -13716.81       6724.9433      48.731617      2.3577398     -152489.98     -151789.19    
      8800   284.20745     -8618.215       6724.9433      48.731617      2.3577398     -152442.6      -151769.95    
      8900   299.99792      3496.5089      6724.9433      48.731617      2.3577398     -152435.73     -151725.7     
      9000   302.33003     -4685.8391      6724.9433      48.731617      2.3577398     -152423.23     -151707.68    
      9100   307.52344      14775.664      6724.9433      48.731617      2.3577398     -152427.42     -151699.59    
      9200   296.76712     -14645.824      6724.9433      48.731617      2.3577398     -152404.08     -151701.7     
      9300   308.85263      8939.5675      6724.9433      48.731617      2.3577398     -152425.78     -151694.8     
      9400   312.21709     -16703.089      6724.9433      48.731617      2.3577398     -152441.03     -151702.08    
      9500   295.62414      80563.955      6724.9433      48.731617      2.3577398     -152428.99     -151729.32    
      9600   302.12716      2500.365       6724.9433      48.731617      2.3577398     -152452.76     -151737.69    
      9700   308.41188     -12269.084      6724.9433      48.731617      2.3577398     -152450.94     -151721       
      9800   307.0852       69969.87       6724.9433      48.731617      2.3577398     -152406.27     -151679.47    
      9900   304.9955       20392.466      6724.9433      48.731617      2.3577398     -152379.93     -151658.07    
     10000   311.10386     -4107.3302      6724.9433      48.731617      2.3577398     -152417.43     -151681.12    
     10100   295.55064      45378.985      6724.9433      48.731617      2.3577398     -152429.54     -151730.04    
     10200   293.32347     -8034.023       6724.9433      48.731617      2.3577398     -152418.52     -151724.29    
     10300   302.49007      27361.61       6724.9433      48.731617      2.3577398     -152423.31     -151707.39    
     10400   291.1304       32433.463      6724.9433      48.731617      2.3577398     -152373.86     -151684.82    
     10500   304.20513      31105.231      6724.9433      48.731617      2.3577398     -152376.03     -151656.05    
     10600   303.49254      1104.5069      6724.9433      48.731617      2.3577398     -152387.33     -151669.04    
     10700   294.32888      55791.918      6724.9433      48.731617      2.3577398     -152422.59     -151725.99    
     10800   302.2961       416.66175      6724.9433      48.731617      2.3577398     -152452.41     -151736.95    
     10900   306.97321      14113.317      6724.9433      48.731617      2.3577398     -152450.59     -151724.05    
     11000   307.64002      9179.3814      6724.9433      48.731617      2.3577398     -152417.71     -151689.6     
     11100   299.63566      1051.5679      6724.9433      48.731617      2.3577398     -152366.02     -151656.86    
     11200   299.12657      11930.962      6724.9433      48.731617      2.3577398     -152356.88     -151648.91    
     11300   307.24558     -17624.939      6724.9433      48.731617      2.3577398     -152433.2      -151706.02    
     11400   293.24703     -11629.456      6724.9433      48.731617      2.3577398     -152435.23     -151741.19    
     11500   283.62089      52882.47       6724.9433      48.731617      2.3577398     -152422.37     -151751.11    
     11600   301.56507      2808.7191      6724.9433      48.731617      2.3577398     -152448.57     -151734.83    
     11700   300.69187      2463.6886      6724.9433      48.731617      2.3577398     -152406.92     -151695.25    
     11800   301.44597      32150.552      6724.9433      48.731617      2.3577398     -152389.29     -151675.84    
     11900   306.7368       48264.502      6724.9433      48.731617      2.3577398     -152386.59     -151660.62    
     12000   328.75522     -34312.633      6724.9433      48.731617      2.3577398     -152432.46     -151654.38    
     12100   310.38907      18199.361      6724.9433      48.731617      2.3577398     -152440.43     -151705.82    
     12200   309.74433      14903.918      6724.9433      48.731617      2.3577398     -152467.01     -151733.92    
     12300   294.30146     -23603.95       6724.9433      48.731617      2.3577398     -152436.87     -151740.33    
     12400   303.47439      44071.73       6724.9433      48.731617      2.3577398     -152424.61     -151706.36    
     12500   313.85279      4319.4253      6724.9433      48.731617      2.3577398     -152416.28     -151673.47    
     12600   304.16968     -17224.954      6724.9433      48.731617      2.3577398     -152412.4      -151692.51    
     12700   310.23248      53796.879      6724.9433      48.731617      2.3577398     -152438.72     -151704.48    
     12800   307.54345      25012.121      6724.9433      48.731617      2.3577398     -152430.66     -151702.78    
     12900   289.66875     -16046.649      6724.9433      48.731617      2.3577398     -152396.88     -151711.3     
     13000   286.03935      36597.338      6724.9433      48.731617      2.3577398     -152418.15     -151741.16    
     13100   280.70128      8129.3882      6724.9433      48.731617      2.3577398     -152437.05     -151772.7     
     13200   292.56044     -22363.83       6724.9433      48.731617      2.3577398     -152445.1      -151752.68    
     13300   302.55032      47413.331      6724.9433      48.731617      2.3577398     -152412.74     -151696.67    
     13400   307.82656      21493.469      6724.9433      48.731617      2.3577398     -152426.64     -151698.09    
     13500   312.14166      30712.986      6724.9433      48.731617      2.3577398     -152458.58     -151719.82    
     13600   277.97805      39350.924      6724.9433      48.731617      2.3577398     -152409.27     -151751.36    
     13700   298.94874      14109.797      6724.9433      48.731617      2.3577398     -152440.75     -151733.21    
     13800   312.13564      40102.07       6724.9433      48.731617      2.3577398     -152413.69     -151674.94    
     13900   311.1648       18179.034      6724.9433      48.731617      2.3577398     -152419.32     -151682.87    
     14000   294.91311     -14059.529      6724.9433      48.731617      2.3577398     -152410.68     -151712.69    
     14100   300.67943      36498.113      6724.9433      48.731617      2.3577398     -152437.12     -151725.48    
     14200   299.97536      13500.707      6724.9433      48.731617      2.3577398     -152424.99     -151715.02    
     14300   308.12122      749.33448      6724.9433      48.731617      2.3577398     -152402.09     -151672.84    
     14400   311.65982      10371.073      6724.9433      48.731617      2.3577398     -152412.67     -151675.05    
     14500   300.59912      30580.936      6724.9433      48.731617      2.3577398     -152426.11     -151714.67    
     14600   286.62056      30591.437      6724.9433      48.731617      2.3577398     -152411.88     -151733.52    
     14700   295.65932      6874.7393      6724.9433      48.731617      2.3577398     -152430.39     -151730.63    
     14800   295.01994     -4902.5934      6724.9433      48.731617      2.3577398     -152426.04     -151727.8     
     14900   283.69009      45145.831      6724.9433      48.731617      2.3577398     -152388.85     -151717.43    
     15000   292.84645      49578.846      6724.9433      48.731617      2.3577398     -152397.89     -151704.79    
     15100   291.8179      -39778.622      6724.9433      48.731617      2.3577398     -152396.78     -151706.12    
     15200   300.99358      46328.199      6724.9433      48.731617      2.3577398     -152446.74     -151734.36    
     15300   274.33697     -7589.3319      6724.9433      48.731617      2.3577398     -152437.73     -151788.44    
     15400   286.69788     -20830.258      6724.9433      48.731617      2.3577398     -152445.51     -151766.97    
     15500   290.33489      12394.966      6724.9433      48.731617      2.3577398     -152413.19     -151726.03    
     15600   304.70852      26306.452      6724.9433      48.731617      2.3577398     -152423.85     -151702.68    
     15700   307.4878       5461.0706      6724.9433      48.731617      2.3577398     -152436.13     -151708.38    
     15800   291.89256      29623.154      6724.9433      48.731617      2.3577398     -152426.75     -151735.91    
     15900   291.93928      12388.398      6724.9433      48.731617      2.3577398     -152469.56     -151778.61    
     16000   288.74874      51766.108      6724.9433      48.731617      2.3577398     -152466.81     -151783.41    
     16100   291.68618     -6528.3713      6724.9433      48.731617      2.3577398     -152410.65     -151720.3     
     16200   304.78477      47738.914      6724.9433      48.731617      2.3577398     -152422.61     -151701.25    
     16300   303.17805      14969.419      6724.9433      48.731617      2.3577398     -152421.44     -151703.89    
     16400   306.07269      70324.628      6724.9433      48.731617      2.3577398     -152444.77     -151720.37    
     16500   300.39477      15349.244      6724.9433      48.731617      2.3577398     -152450.27     -151739.3     
     16600   291.73792     -17991.684      6724.9433      48.731617      2.3577398     -152459.7      -151769.23    
     16700   295.15445      54899.221      6724.9433      48.731617      2.3577398     -152465.04     -151766.48    
     16800   295.86446      13483.847      6724.9433      48.731617      2.3577398     -152411.82     -151711.58    
     16900   302.08914      59215.015      6724.9433      48.731617      2.3577398     -152403.22     -151688.25    
     17000   300.22594      31941.265      6724.9433      48.731617      2.3577398     -152411.28     -151700.71    
     17100   303.60232     -20984.16       6724.9433      48.731617      2.3577398     -152448.86     -151730.31    
     17200   286.32925      1575.7902      6724.9433      48.731617      2.3577398     -152443.41     -151765.74    
     17300   287.0242       38223.868      6724.9433      48.731617      2.3577398     -152436.07     -151756.76    
     17400   294.03386     -32347.371      6724.9433      48.731617      2.3577398     -152412.52     -151716.61    
     17500   293.16287      66676.768      6724.9433      48.731617      2.3577398     -152412.01     -151718.17    
     17600   295.75385      10091.658      6724.9433      48.731617      2.3577398     -152421.79     -151721.81    
     17700   300.00823     -34424.331      6724.9433      48.731617      2.3577398     -152445.81     -151735.76    
     17800   295.50197      48853.886      6724.9433      48.731617      2.3577398     -152450.98     -151751.6     
     17900   286.08764      2358.9956      6724.9433      48.731617      2.3577398     -152427.2      -151750.1     
     18000   307.97825     -11764.995      6724.9433      48.731617      2.3577398     -152430.8      -151701.89    
     18100   303.23237      56338.695      6724.9433      48.731617      2.3577398     -152398.87     -151681.19    
     18200   304.97276      25420.615      6724.9433      48.731617      2.3577398     -152401.75     -151679.95    
     18300   305.52775      1529.2368      6724.9433      48.731617      2.3577398     -152445.97     -151722.86    
     18400   288.43431      17527.459      6724.9433      48.731617      2.3577398     -152445.15     -151762.49    
     18500   296.26169      3189.4207      6724.9433      48.731617      2.3577398     -152449.98     -151748.79    
     18600   308.58702      37625.19       6724.9433      48.731617      2.3577398     -152445.31     -151714.95    
     18700   306.24073      34749.775      6724.9433      48.731617      2.3577398     -152418.37     -151693.57    
     18800   309.35442     -35740.12       6724.9433      48.731617      2.3577398     -152426.61     -151694.44    
     18900   306.1061       46145.663      6724.9433      48.731617      2.3577398     -152438.58     -151714.1     
     19000   298.7789       36303.48       6724.9433      48.731617      2.3577398     -152421.07     -151713.93    
     19100   301.19861     -19356.165      6724.9433      48.731617      2.3577398     -152425.65     -151712.79    
     19200   291.8906       48609.109      6724.9433      48.731617      2.3577398     -152415.85     -151725.01    
     19300   298.78538      28775.531      6724.9433      48.731617      2.3577398     -152437.17     -151730.01    
     19400   289.11136      7604.3345      6724.9433      48.731617      2.3577398     -152424.05     -151739.79    
     19500   298.02182      24436.371      6724.9433      48.731617      2.3577398     -152439.61     -151734.27    
     19600   308.46032      35798.038      6724.9433      48.731617      2.3577398     -152434.78     -151704.73    
     19700   323.46916     -12619.321      6724.9433      48.731617      2.3577398     -152443.58     -151678.01    
     19800   312.06944      16048.571      6724.9433      48.731617      2.3577398     -152447.63     -151709.04    
     19900   298.82612      28459.099      6724.9433      48.731617      2.3577398     -152441.7      -151734.45    
     20000   292.45656      7542.7979      6724.9433      48.731617      2.3577398     -152425.44     -151733.27    
     20100   293.84852      51333.76       6724.9433      48.731617      2.3577398     -152414.16     -151718.69    
     20200   298.49039     -15743.305      6724.9433      48.731617      2.3577398     -152399.9      -151693.45    
     20300   312.85389      18904.663      6724.9433      48.731617      2.3577398     -152416.55     -151676.1     
     20400   309.64119     -44304.049      6724.9433      48.731617      2.3577398     -152430.93     -151698.08    
     20500   296.41564      41765.259      6724.9433      48.731617      2.3577398     -152449.6      -151748.05    
     20600   281.87968      47017.285      6724.9433      48.731617      2.3577398     -152428.22     -151761.08    
     20700   303.24246      7839.4022      6724.9433      48.731617      2.3577398     -152462.89     -151745.19    
     20800   298.12206     -30013.566      6724.9433      48.731617      2.3577398     -152408.29     -151702.7     
     20900   328.807        65.5161        6724.9433      48.731617      2.3577398     -152462.31     -151684.1     
     21000   298.74706      17964.717      6724.9433      48.731617      2.3577398     -152406.47     -151699.41    
     21100   291.17283      40016.46       6724.9433      48.731617      2.3577398     -152395.48     -151706.35    
     21200   295.89676      48991.709      6724.9433      48.731617      2.3577398     -152412.72     -151712.4     
     21300   293.58809     -20563.493      6724.9433      48.731617      2.3577398     -152426.84     -151731.98    
     21400   302.89219      71081.201      6724.9433      48.731617      2.3577398     -152488.58     -151771.71    
     21500   290.36256      35204.055      6724.9433      48.731617      2.3577398     -152488.45     -151801.23    
     21600   294.50163     -15414.519      6724.9433      48.731617      2.3577398     -152462.02     -151765       
     21700   306.19213      37866.244      6724.9433      48.731617      2.3577398     -152466.12     -151741.43    
     21800   293.66646      40624.989      6724.9433      48.731617      2.3577398     -152425.11     -151730.07    
     21900   306.28782      49160.08       6724.9433      48.731617      2.3577398     -152428.95     -151704.04    
     22000   314.16087      4890.9462      6724.9433      48.731617      2.3577398     -152420.27     -151676.73    
     22100   313.23145      11022.641      6724.9433      48.731617      2.3577398     -152415.93     -151674.59    
     22200   301.18164      14958.923      6724.9433      48.731617      2.3577398     -152440.38     -151727.56    
     22300   297.7492      -33092.127      6724.9433      48.731617      2.3577398     -152457.29     -151752.59    
     22400   299.07637      42288.732      6724.9433      48.731617      2.3577398     -152448.48     -151740.64    
     22500   299.00647     -22329.731      6724.9433      48.731617      2.3577398     -152410.63     -151702.95    
     22600   301.97698      32120.947      6724.9433      48.731617      2.3577398     -152395.38     -151680.67    
     22700   301.43316      40669.323      6724.9433      48.731617      2.3577398     -152407.99     -151694.57    
     22800   307.79959     -52209.84       6724.9433      48.731617      2.3577398     -152435.9      -151707.41    
     22900   304.68706      60356.639      6724.9433      48.731617      2.3577398     -152443.18     -151722.06    
     23000   303.98931     -8448.1537      6724.9433      48.731617      2.3577398     -152452.57     -151733.1     
     23100   293.74566     -12515.951      6724.9433      48.731617      2.3577398     -152434.7      -151739.47    
     23200   299.87435      34744.255      6724.9433      48.731617      2.3577398     -152437.1      -151727.37    
     23300   303.14094     -13296.54       6724.9433      48.731617      2.3577398     -152415.02     -151697.55    
     23400   303.84087      54190.983      6724.9433      48.731617      2.3577398     -152397.06     -151677.94    
     23500   314.57692      27952.366      6724.9433      48.731617      2.3577398     -152432.35     -151687.82    
     23600   298.24877      6234.6867      6724.9433      48.731617      2.3577398     -152441.48     -151735.6     
     23700   295.05265      17871.505      6724.9433      48.731617      2.3577398     -152448.34     -151750.02    
     23800   298.42975      21756.211      6724.9433      48.731617      2.3577398     -152440.4      -151734.09    
     23900   304.77791      1574.7578      6724.9433      48.731617      2.3577398     -152439.56     -151718.22    
     24000   306.60443      13070.908      6724.9433      48.731617      2.3577398     -152434.56     -151708.9     
     24100   310.60133      43128.157      6724.9433      48.731617      2.3577398     -152440.66     -151705.54    
     24200   303.83645     -18516.567      6724.9433      48.731617      2.3577398     -152427.19     -151708.08    
     24300   301.02477      40334.191      6724.9433      48.731617      2.3577398     -152430.63     -151718.17    
     24400   296.26862      9624.0976      6724.9433      48.731617      2.3577398     -152431.62     -151730.42    
     24500   284.8416       55884.77       6724.9433      48.731617      2.3577398     -152423.73     -151749.58    
     24600   288.07724     -16482.523      6724.9433      48.731617      2.3577398     -152439.7      -151757.89    
     24700   303.82951     -26646.574      6724.9433      48.731617      2.3577398     -152453.01     -151733.91    
     24800   303.53948     -12372.588      6724.9433      48.731617      2.3577398     -152415.6      -151697.2     
     24900   304.65073      40618.511      6724.9433      48.731617      2.3577398     -152402.04     -151681       
     25000   290.62005      33626.232      6724.9433      48.731617      2.3577398     -152397.99     -151710.16    
     25100   295.9747       41129.778      6724.9433      48.731617      2.3577398     -152454.24     -151753.74    
     25200   289.86517     -12895.96       6724.9433      48.731617      2.3577398     -152431.61     -151745.57    
     25300   306.7954       32609.461      6724.9433      48.731617      2.3577398     -152444.95     -151718.84    
     25400   299.63118     -20530.836      6724.9433      48.731617      2.3577398     -152413.02     -151703.86    
     25500   301.12482      30726.287      6724.9433      48.731617      2.3577398     -152407.88     -151695.19    
     25600   301.48114     -3560.6255      6724.9433      48.731617      2.3577398     -152408.05     -151694.52    
     25700   295.76134     -33380.997      6724.9433      48.731617      2.3577398     -152416.47     -151716.48    
     25800   289.27778      22694.996      6724.9433      48.731617      2.3577398     -152432.77     -151748.12    
     25900   288.53609     -11578.971      6724.9433      48.731617      2.3577398     -152443.1      -151760.2     
     26000   297.98751      13800.266      6724.9433      48.731617      2.3577398     -152420.86     -151715.59    
     26100   296.67412      50491.126      6724.9433      48.731617      2.3577398     -152386.53     -151684.37    
     26200   306.20121     -38150.45       6724.9433      48.731617      2.3577398     -152420.03     -151695.33    
     26300   291.22599      27688.948      6724.9433      48.731617      2.3577398     -152418.76     -151729.5     
     26400   299.17797      2655.3446      6724.9433      48.731617      2.3577398     -152450.21     -151742.13    
     26500   298.12142     -5169.3728      6724.9433      48.731617      2.3577398     -152442.38     -151736.79    
     26600   311.45561      25072.411      6724.9433      48.731617      2.3577398     -152425.72     -151688.58    
     26700   311.57916      2417.3071      6724.9433      48.731617      2.3577398     -152402.63     -151665.2     
     26800   300.49539      14789.968      6724.9433      48.731617      2.3577398     -152409.46     -151698.26    
     26900   301.8726       35159.084      6724.9433      48.731617      2.3577398     -152440.53     -151726.07    
     27000   294.24153      14879.76       6724.9433      48.731617      2.3577398     -152428.17     -151731.77    
     27100   295.637       -4230.1483      6724.9433      48.731617      2.3577398     -152432.87     -151733.17    
     27200   291.89248      32802.904      6724.9433      48.731617      2.3577398     -152432.78     -151741.94    
     27300   293.37313      24771.316      6724.9433      48.731617      2.3577398     -152414.75     -151720.41    
     27400   291.4496       15398.546      6724.9433      48.731617      2.3577398     -152386.78     -151696.99    
     27500   300.40251      69832.9        6724.9433      48.731617      2.3577398     -152397.57     -151686.59    
     27600   298.95948      8066.3136      6724.9433      48.731617      2.3577398     -152408.22     -151700.66    
     27700   287.16052     -24946.303      6724.9433      48.731617      2.3577398     -152422.55     -151742.91    
     27800   283.64997      10298.671      6724.9433      48.731617      2.3577398     -152434.21     -151762.88    
     27900   299.41802     -28499.781      6724.9433      48.731617      2.3577398     -152446.9      -151738.24    
     28000   301.8673       16387.244      6724.9433      48.731617      2.3577398     -152416.86     -151702.41    
     28100   293.51266      17706.59       6724.9433      48.731617      2.3577398     -152396.01     -151701.33    
     28200   292.34767      24611.951      6724.9433      48.731617      2.3577398     -152393.43     -151701.52    
     28300   295.13067     -15334.063      6724.9433      48.731617      2.3577398     -152424.15     -151725.65    
     28400   294.69044      57790.066      6724.9433      48.731617      2.3577398     -152457.87     -151760.41    
     28500   290.80658      22066.785      6724.9433      48.731617      2.3577398     -152465.17     -151776.9     
     28600   302.33906      53840.438      6724.9433      48.731617      2.3577398     -152453.75     -151738.19    
     28700   317.04819      20075.565      6724.9433      48.731617      2.3577398     -152448.99     -151698.61    
     28800   311.68269     -1695.5086      6724.9433      48.731617      2.3577398     -152420.16     -151682.48    
     28900   301.47835      26794.698      6724.9433      48.731617      2.3577398     -152397.03     -151683.51    
     29000   286.78079      52521.38       6724.9433      48.731617      2.3577398     -152410.15     -151731.41    
     29100   288.85808      12935.241      6724.9433      48.731617      2.3577398     -152429.84     -151746.18    
     29200   308.98443      14034.302      6724.9433      48.731617      2.3577398     -152458.31     -151727.02    
     29300   302.40342      25353.745      6724.9433      48.731617      2.3577398     -152433.84     -151718.13    
     29400   293.2726       29670.786      6724.9433      48.731617      2.3577398     -152412.35     -151718.25    
     29500   298.39146      73299.288      6724.9433      48.731617      2.3577398     -152412.62     -151706.4     
     29600   317.43702     -21549.771      6724.9433      48.731617      2.3577398     -152394.42     -151643.12    
     29700   312.15799      27556.788      6724.9433      48.731617      2.3577398     -152382.89     -151644.09    
     29800   302.48939      61882.151      6724.9433      48.731617      2.3577398     -152405.55     -151689.62    
     29900   309.45187      16684.4        6724.9433      48.731617      2.3577398     -152446.32     -151713.92    
     30000   302.72658      51955.529      6724.9433      48.731617      2.3577398     -152446.3      -151729.82    
     30100   293.37604     -11078.388      6724.9433      48.731617      2.3577398     -152438.53     -151744.18    
     30200   295.24831      62532.459      6724.9433      48.731617      2.3577398     -152443.18     -151744.4     
     30300   318.42963      32462.388      6724.9433      48.731617      2.3577398     -152472.64     -151718.99    
     30400   298.26299      4059.0072      6724.9433      48.731617      2.3577398     -152398.14     -151692.22    
     30500   318.28816      63390.126      6724.9433      48.731617      2.3577398     -152432.89     -151679.58    
     30600   292.06471     -4374.1368      6724.9433      48.731617      2.3577398     -152409.54     -151718.3     
     30700   288.00902      13582.911      6724.9433      48.731617      2.3577398     -152433.12     -151751.47    
     30800   293.71333      38037.324      6724.9433      48.731617      2.3577398     -152441.94     -151746.79    
     30900   293.01677     -33935.395      6724.9433      48.731617      2.3577398     -152429.58     -151736.08    
     31000   300.39176      21209.902      6724.9433      48.731617      2.3577398     -152434.08     -151723.13    
     31100   292.94717      24014.166      6724.9433      48.731617      2.3577398     -152410.55     -151717.21    
     31200   303.37383      20619.546      6724.9433      48.731617      2.3577398     -152399.49     -151681.48    
     31300   306.35908      18850.242      6724.9433      48.731617      2.3577398     -152379.46     -151654.38    
     31400   303.66924      39153.186      6724.9433      48.731617      2.3577398     -152397.48     -151678.77    
     31500   301.02144      21310.189      6724.9433      48.731617      2.3577398     -152437.04     -151724.59    
     31600   293.6759       11180.715      6724.9433      48.731617      2.3577398     -152436.41     -151741.35    
     31700   292.59093      44126.682      6724.9433      48.731617      2.3577398     -152421        -151728.51    
     31800   306.09056      16108.402      6724.9433      48.731617      2.3577398     -152421.29     -151696.85    
     31900   312.52409     -32648.351      6724.9433      48.731617      2.3577398     -152393.73     -151654.06    
     32000   303.34302      46334.456      6724.9433      48.731617      2.3577398     -152387.09     -151669.15    
     32100   298.03152     -15956.787      6724.9433      48.731617      2.3577398     -152441.54     -151736.17    
     32200   297.60363      63513.358      6724.9433      48.731617      2.3577398     -152451.64     -151747.28    
     32300   299.23435      24090.62       6724.9433      48.731617      2.3577398     -152442.22     -151734       
     32400   304.39873      28258.258      6724.9433      48.731617      2.3577398     -152422.88     -151702.44    
     32500   300.70448      34247.113      6724.9433      48.731617      2.3577398     -152394.27     -151682.58    
     32600   324.84902     -746.00477      6724.9433      48.731617      2.3577398     -152445.44     -151676.6     
     32700   306.67289     -5744.0529      6724.9433      48.731617      2.3577398     -152444.85     -151719.03    
     32800   293.46763      43503.943      6724.9433      48.731617      2.3577398     -152451.75     -151757.18    
     32900   292.88692      44281.769      6724.9433      48.731617      2.3577398     -152439.53     -151746.33    
     33000   301.422        5685.6246      6724.9433      48.731617      2.3577398     -152423.99     -151710.6     
     33100   293.46991      2113.2648      6724.9433      48.731617      2.3577398     -152392.41     -151697.83    
     33200   298.28089      42193.703      6724.9433      48.731617      2.3577398     -152399.19     -151693.23    
     33300   311.59561      24268.371      6724.9433      48.731617      2.3577398     -152432.81     -151695.34    
     33400   295.2745       9938.3088      6724.9433      48.731617      2.3577398     -152442.74     -151743.9     
     33500   295.73939      41581.472      6724.9433      48.731617      2.3577398     -152482.49     -151782.54    
     33600   300.44636      32082.186      6724.9433      48.731617      2.3577398     -152463.05     -151751.97    
     33700   302.84979      19101.579      6724.9433      48.731617      2.3577398     -152435.32     -151718.55    
     33800   304.07707     -10288.6        6724.9433      48.731617      2.3577398     -152423.13     -151703.45    
     33900   298.88353      55710.067      6724.9433      48.731617      2.3577398     -152410.58     -151703.19    
     34000   296.73202      939.04843      6724.9433      48.731617      2.3577398     -152395.69     -151693.4     
     34100   313.57645      32674.229      6724.9433      48.731617      2.3577398     -152424.9      -151682.74    
     34200   295.69848      27597.911      6724.9433      48.731617      2.3577398     -152420.32     -151720.47    
     34300   283.21783     -14550.579      6724.9433      48.731617      2.3577398     -152411.39     -151741.08    
     34400   292.93947     -4570.4843      6724.9433      48.731617      2.3577398     -152427.82     -151734.5     
     34500   323.46072      53987.842      6724.9433      48.731617      2.3577398     -152443.98     -151678.43    
     34600   328.43148     -18641.276      6724.9433      48.731617      2.3577398     -152469.97     -151692.65    
     34700   305.71862      59747.666      6724.9433      48.731617      2.3577398     -152468.2      -151744.63    
     34800   295.87146      16634.024      6724.9433      48.731617      2.3577398     -152485.52     -151785.27    
     34900   289.83302     -12472.752      6724.9433      48.731617      2.3577398     -152497.44     -151811.47    
     35000   298.34644     -28706.488      6724.9433      48.731617      2.3577398     -152536.66     -151830.55    
     35100   286.67647      67638.718      6724.9433      48.731617      2.3577398     -152524.19     -151845.69    
     35200   305.31911      20498.519      6724.9433      48.731617      2.3577398     -152527.15     -151804.53    
     35300   311.53791      58617.734      6724.9433      48.731617      2.3577398     -152506.53     -151769.19    
     35400   296.90995      39936.633      6724.9433      48.731617      2.3577398     -152481.57     -151778.86    
     35500   302.30513      15529.293      6724.9433      48.731617      2.3577398     -152525.45     -151809.97    
     35600   297.5691       28515.088      6724.9433      48.731617      2.3577398     -152544.34     -151840.06    
     35700   297.24173      16508.009      6724.9433      48.731617      2.3577398     -152534.89     -151831.39    
     35800   303.8715       19937.549      6724.9433      48.731617      2.3577398     -152535.2      -151816.01    
     35900   295.49074      30944.972      6724.9433      48.731617      2.3577398     -152510.3      -151810.94    
     36000   304.86011      50622.396      6724.9433      48.731617      2.3577398     -152519.62     -151798.08    
     36100   300.71396      26497.834      6724.9433      48.731617      2.3577398     -152490.15     -151778.43    
     36200   301.55566      22031.995      6724.9433      48.731617      2.3577398     -152479.41     -151765.7     
     36300   306.34039      19282.732      6724.9433      48.731617      2.3577398     -152522.69     -151797.66    
     36400   291.11931      8830.1708      6724.9433      48.731617      2.3577398     -152519.4      -151830.39    
     36500   299.46632      37073.951      6724.9433      48.731617      2.3577398     -152546.89     -151838.13    
     36600   301.52236      46980.551      6724.9433      48.731617      2.3577398     -152536.23     -151822.6     
     36700   317.49227      6050.5183      6724.9433      48.731617      2.3577398     -152516.82     -151765.39    
     36800   313.75386      24149.718      6724.9433      48.731617      2.3577398     -152501.53     -151758.95    
     36900   300.15303      8982.2983      6724.9433      48.731617      2.3577398     -152505.12     -151794.73    
     37000   306.45939      22571.697      6724.9433      48.731617      2.3577398     -152550.51     -151825.19    
     37100   303.54605     -5273.7984      6724.9433      48.731617      2.3577398     -152535.94     -151817.52    
     37200   291.66915      34063.722      6724.9433      48.731617      2.3577398     -152487.29     -151796.98    
     37300   311.95579     -810.8756       6724.9433      48.731617      2.3577398     -152519.4      -151781.07    
     37400   298.3352       54525.421      6724.9433      48.731617      2.3577398     -152505.18     -151799.09    
     37500   282.03991      33588.456      6724.9433      48.731617      2.3577398     -152529.43     -151861.91    
     37600   280.56869      10355.979      6724.9433      48.731617      2.3577398     -152533.2      -151869.16    
     37700   288.3764       27236.158      6724.9433      48.731617      2.3577398     -152515.74     -151833.22    
     37800   297.70722     -27789.035      6724.9433      48.731617      2.3577398     -152505.76     -151801.16    
     37900   302.09224      25725.987      6724.9433      48.731617      2.3577398     -152503.4      -151788.42    
     38000   293.17511      3400.9238      6724.9433      48.731617      2.3577398     -152492.82     -151798.94    
     38100   290.35416      40698.894      6724.9433      48.731617      2.3577398     -152517.96     -151830.76    
     38200   277.69691     -5097.2335      6724.9433      48.731617      2.3577398     -152518.91     -151861.67    
     38300   294.69289      3941.6805      6724.9433      48.731617      2.3577398     -152523.57     -151826.1     
     38400   294.77521      50766.567      6724.9433      48.731617      2.3577398     -152490.97     -151793.31    
     38500   296.60261      2939.4376      6724.9433      48.731617      2.3577398     -152494.08     -151792.09    
     38600   309.98337      65984.086      6724.9433      48.731617      2.3577398     -152532.73     -151799.07    
     38700   305.92812      11738.857      6724.9433      48.731617      2.3577398     -152561.71     -151837.65    
     38800   290.1606       14804.459      6724.9433      48.731617      2.3577398     -152554.43     -151867.69    
     38900   297.46312      17112.865      6724.9433      48.731617      2.3577398     -152546.58     -151842.55    
     39000   306.0074       14658.679      6724.9433      48.731617      2.3577398     -152540.58     -151816.33    
     39100   305.55746      18486.898      6724.9433      48.731617      2.3577398     -152533.72     -151810.54    
     39200   303.70187      54266.96       6724.9433      48.731617      2.3577398     -152515.3      -151796.51    
     39300   315.60072     -27195.913      6724.9433      48.731617      2.3577398     -152516.93     -151769.98    
     39400   320.85469      26713.837      6724.9433      48.731617      2.3577398     -152509.03     -151749.64    
     39500   310.9617      -12008.106      6724.9433      48.731617      2.3577398     -152513.12     -151777.15    
     39600   293.00646      28035.466      6724.9433      48.731617      2.3577398     -152518.63     -151825.15    
     39700   299.63077      50235.637      6724.9433      48.731617      2.3577398     -152539.65     -151830.49    
     39800   303.23587     -29873.274      6724.9433      48.731617      2.3577398     -152542.96     -151825.28    
     39900   304.47089      20810.252      6724.9433      48.731617      2.3577398     -152499.32     -151778.71    
     40000   312.81781      75044.455      6724.9433      48.731617      2.3577398     -152495.89     -151755.52    
     40100   295.94049     -2806.486       6724.9433      48.731617      2.3577398     -152480.08     -151779.66    
     40200   294.90773      8372.4592      6724.9433      48.731617      2.3577398     -152504.91     -151806.94    
     40300   305.26698     -7818.8378      6724.9433      48.731617      2.3577398     -152545.23     -151822.74    
     40400   292.53892      39085.721      6724.9433      48.731617      2.3577398     -152517.36     -151824.99    
     40500   294.44274      34675.556      6724.9433      48.731617      2.3577398     -152515.6      -151818.72    
     40600   306.00362      1181.3246      6724.9433      48.731617      2.3577398     -152485.96     -151761.72    
     40700   322.6895      -16867.884      6724.9433      48.731617      2.3577398     -152504.43     -151740.71    
     40800   308.68167      67435.171      6724.9433      48.731617      2.3577398     -152496.9      -151766.33    
     40900   306.30525      489.75544      6724.9433      48.731617      2.3577398     -152509.72     -151784.77    
     41000   304.69239      45185.377      6724.9433      48.731617      2.3577398     -152533.32     -151812.18    
     41100   289.97261      27233.332      6724.9433      48.731617      2.3577398     -152512.27     -151825.98    
     41200   291.07937     -19078.266      6724.9433      48.731617      2.3577398     -152505.85     -151816.94    
     41300   303.37599      30937.175      6724.9433      48.731617      2.3577398     -152490.73     -151772.71    
     41400   321.79131      23418.524      6724.9433      48.731617      2.3577398     -152485.95     -151724.35    
     41500   314.01453      16987.967      6724.9433      48.731617      2.3577398     -152500.66     -151757.46    
     41600   297.79268      25191.817      6724.9433      48.731617      2.3577398     -152499.6      -151794.8     
     41700   300.51952      4831.3042      6724.9433      48.731617      2.3577398     -152519.72     -151808.46    
     41800   295.96207     -534.82123      6724.9433      48.731617      2.3577398     -152523.59     -151823.12    
     41900   302.61825      3002.4354      6724.9433      48.731617      2.3577398     -152546.16     -151829.93    
     42000   295.93281     -15123.964      6724.9433      48.731617      2.3577398     -152509.98     -151809.58    
     42100   303.93811      9555.4404      6724.9433      48.731617      2.3577398     -152492.46     -151773.11    
     42200   316.29572     -1699.6133      6724.9433      48.731617      2.3577398     -152510.63     -151762.03    
     42300   293.11056      22852.81       6724.9433      48.731617      2.3577398     -152495.77     -151802.05    
     42400   287.09238     -1605.5848      6724.9433      48.731617      2.3577398     -152512.89     -151833.41    
     42500   296.09887      45509.448      6724.9433      48.731617      2.3577398     -152524.83     -151824.04    
     42600   289.18158      4852.8855      6724.9433      48.731617      2.3577398     -152493.13     -151808.7     
     42700   304.20076      25930.642      6724.9433      48.731617      2.3577398     -152503.19     -151783.22    
     42800   301.43867      511.6642       6724.9433      48.731617      2.3577398     -152478.38     -151764.94    
     42900   313.68058      37912.407      6724.9433      48.731617      2.3577398     -152482.17     -151739.77    
     43000   308.85035      26004.053      6724.9433      48.731617      2.3577398     -152503.78     -151772.8     
     43100   301.0004       6388.9079      6724.9433      48.731617      2.3577398     -152529.38     -151816.99    
     43200   297.00939      54138.796      6724.9433      48.731617      2.3577398     -152525.39     -151822.43    
     43300   288.41789      24697.837      6724.9433      48.731617      2.3577398     -152483.26     -151800.65    
     43400   306.23366      26139.988      6724.9433      48.731617      2.3577398     -152480.23     -151755.44    
     43500   315.43311      68121.2        6724.9433      48.731617      2.3577398     -152506.23     -151759.67    
     43600   321.81172     -25735.88       6724.9433      48.731617      2.3577398     -152547.53     -151785.87    
     43700   313.39152      35478.272      6724.9433      48.731617      2.3577398     -152547.51     -151805.78    
     43800   297.37767     -11002.131      6724.9433      48.731617      2.3577398     -152522.84     -151819.02    
     43900   298.82041      37724.315      6724.9433      48.731617      2.3577398     -152510.87     -151803.64    
     44000   311.1342      -6122.179       6724.9433      48.731617      2.3577398     -152489.35     -151752.97    
     44100   302.7618       1773.2572      6724.9433      48.731617      2.3577398     -152483.21     -151766.64    
     44200   289.85706      51423.544      6724.9433      48.731617      2.3577398     -152474.31     -151788.29    
     44300   304.98394      5379.2875      6724.9433      48.731617      2.3577398     -152513        -151791.18    
     44400   294.30331      9650.5006      6724.9433      48.731617      2.3577398     -152515.23     -151818.68    
     44500   282.54454      84358.183      6724.9433      48.731617      2.3577398     -152511.4      -151842.69    
     44600   303.73337     -53485.453      6724.9433      48.731617      2.3577398     -152536.92     -151818.06    
     44700   306.57523      14001.948      6724.9433      48.731617      2.3577398     -152494.79     -151769.2     
     44800   295.2489       73353.016      6724.9433      48.731617      2.3577398     -152466.26     -151767.48    
     44900   313.65832     -33152.123      6724.9433      48.731617      2.3577398     -152522.4      -151780.04    
     45000   307.67211      22068.319      6724.9433      48.731617      2.3577398     -152537.97     -151809.79    
     45100   290.55929      94603.45       6724.9433      48.731617      2.3577398     -152509.21     -151821.53    
     45200   295.07996     -30852.962      6724.9433      48.731617      2.3577398     -152509.17     -151810.79    
     45300   287.79728      25401.542      6724.9433      48.731617      2.3577398     -152484.59     -151803.44    
     45400   297.85734      68231.404      6724.9433      48.731617      2.3577398     -152511.01     -151806.05    
     45500   284.76081      1955.9087      6724.9433      48.731617      2.3577398     -152514.91     -151840.95    
     45600   291.1511       42383.3        6724.9433      48.731617      2.3577398     -152548.64     -151859.55    
     45700   298.12594      4243.7925      6724.9433      48.731617      2.3577398     -152549.96     -151844.37    
     45800   305.09458      39186.241      6724.9433      48.731617      2.3577398     -152519.17     -151797.08    
     45900   314.01666      49255.17       6724.9433      48.731617      2.3577398     -152518.26     -151775.06    
     46000   309.10921     -37507.334      6724.9433      48.731617      2.3577398     -152518.6      -151787.01    
     46100   284.40853     -10533.219      6724.9433      48.731617      2.3577398     -152489.39     -151816.26    
     46200   292.54188      62644.923      6724.9433      48.731617      2.3577398     -152517.17     -151824.79    
     46300   297.42458      1721.1044      6724.9433      48.731617      2.3577398     -152526.71     -151822.78    
     46400   294.30677      96350.459      6724.9433      48.731617      2.3577398     -152513.47     -151816.92    
     46500   302.87642     -6465.4847      6724.9433      48.731617      2.3577398     -152528.86     -151812.03    
     46600   316.18176      53631.307      6724.9433      48.731617      2.3577398     -152551.33     -151803.01    
     46700   318.22465      24562.546      6724.9433      48.731617      2.3577398     -152536.65     -151783.49    
     46800   316.05198      56349.699      6724.9433      48.731617      2.3577398     -152508.44     -151760.42    
     46900   312.81992      21300.396      6724.9433      48.731617      2.3577398     -152501.47     -151761.1     
     47000   303.40916      55849.097      6724.9433      48.731617      2.3577398     -152522.32     -151804.22    
     47100   304.36081     -14887.748      6724.9433      48.731617      2.3577398     -152555.81     -151835.46    
     47200   298.95955      5404.1243      6724.9433      48.731617      2.3577398     -152540.73     -151833.16    
     47300   302.94424     -4544.795       6724.9433      48.731617      2.3577398     -152530.78     -151813.78    
     47400   297.81253     -21588.985      6724.9433      48.731617      2.3577398     -152493.93     -151789.08    
     47500   315.2702      -13661.852      6724.9433      48.731617      2.3577398     -152475.83     -151729.66    
     47600   323.26333      28934.173      6724.9433      48.731617      2.3577398     -152474.43     -151709.35    
     47700   312.07767      250.52513      6724.9433      48.731617      2.3577398     -152489.85     -151751.24    
     47800   298.43821      10525.356      6724.9433      48.731617      2.3577398     -152486.87     -151780.53    
     47900   296.58739     -5340.0478      6724.9433      48.731617      2.3577398     -152513.53     -151811.58    
     48000   298.68108      38678.445      6724.9433      48.731617      2.3577398     -152530.55     -151823.64    
     48100   295.14064     -27477.873      6724.9433      48.731617      2.3577398     -152514.79     -151816.26    
     48200   320.05608      14331.304      6724.9433      48.731617      2.3577398     -152528.75     -151771.25    
     48300   310.50846      29119.809      6724.9433      48.731617      2.3577398     -152494.96     -151760.06    
     48400   314.60579      2751.6015      6724.9433      48.731617      2.3577398     -152507.77     -151763.18    
     48500   298.91026     -8154.7878      6724.9433      48.731617      2.3577398     -152522.2      -151814.75    
     48600   291.31446      20283          6724.9433      48.731617      2.3577398     -152534.29     -151844.82    
     48700   297.78772      22627.268      6724.9433      48.731617      2.3577398     -152543.5      -151838.71    
     48800   291.4143       7306.1396      6724.9433      48.731617      2.3577398     -152491.05     -151801.34    
     48900   308.10907      44020.153      6724.9433      48.731617      2.3577398     -152502.06     -151772.84    
     49000   300.66308      44482.406      6724.9433      48.731617      2.3577398     -152494.61     -151783.01    
     49100   305.64715     -31264.358      6724.9433      48.731617      2.3577398     -152535.04     -151811.64    
     49200   281.54808      19229.444      6724.9433      48.731617      2.3577398     -152494.74     -151828.38    
     49300   291.36555      40480.586      6724.9433      48.731617      2.3577398     -152506.16     -151816.57    
     49400   303.41849      15278.204      6724.9433      48.731617      2.3577398     -152519.88     -151801.76    
     49500   297.13825      1227.6834      6724.9433      48.731617      2.3577398     -152508.47     -151805.21    
     49600   304.78818      9564.542       6724.9433      48.731617      2.3577398     -152525.71     -151804.35    
     49700   301.52834     -12471.449      6724.9433      48.731617      2.3577398     -152515.28     -151801.63    
     49800   294.90838     -22470.289      6724.9433      48.731617      2.3577398     -152508.16     -151810.18    
     49900   282.83595      35567.906      6724.9433      48.731617      2.3577398     -152528.84     -151859.43    
     50000   288.18313      29689.374      6724.9433      48.731617      2.3577398     -152555.01     -151872.95    
     50100   293.22324     -24570.689      6724.9433      48.731617      2.3577398     -152540.91     -151846.92    
     50200   301.63087      21116.665      6724.9433      48.731617      2.3577398     -152535.84     -151821.96    
     50300   305.0343       16623.605      6724.9433      48.731617      2.3577398     -152528.23     -151806.29    
     50400   298.76582      55607.524      6724.9433      48.731617      2.3577398     -152503.89     -151796.78    
     50500   313.58206      23355.984      6724.9433      48.731617      2.3577398     -152521.83     -151779.65    
     50600   308.81671      30057.977      6724.9433      48.731617      2.3577398     -152517.71     -151786.82    
     50700   296.92295      13944.107      6724.9433      48.731617      2.3577398     -152533.16     -151830.41    
     50800   307.38993     -11194.307      6724.9433      48.731617      2.3577398     -152576.51     -151848.99    
     50900   300.88306      45891.678      6724.9433      48.731617      2.3577398     -152561.58     -151849.46    
     51000   293.82981     -23539.007      6724.9433      48.731617      2.3577398     -152498.6      -151803.17    
     51100   311.37739      64955.459      6724.9433      48.731617      2.3577398     -152499.35     -151762.39    
     51200   302.57189     -29590.563      6724.9433      48.731617      2.3577398     -152496.19     -151780.07    
     51300   303.06635      22319.22       6724.9433      48.731617      2.3577398     -152536.95     -151819.66    
     51400   290.74973      24726.83       6724.9433      48.731617      2.3577398     -152522.61     -151834.47    
     51500   293.05717     -3263.9525      6724.9433      48.731617      2.3577398     -152514.69     -151821.09    
     51600   298.21196      45759.867      6724.9433      48.731617      2.3577398     -152511.88     -151806.08    
     51700   295.98119      7671.482       6724.9433      48.731617      2.3577398     -152487.06     -151786.54    
     51800   300.67772     -3230.4263      6724.9433      48.731617      2.3577398     -152466.93     -151755.3     
     51900   301.67416      1246.5036      6724.9433      48.731617      2.3577398     -152465.34     -151751.35    
     52000   307.46809      40922.934      6724.9433      48.731617      2.3577398     -152528.71     -151801.01    
     52100   292.54782      23794.644      6724.9433      48.731617      2.3577398     -152512.25     -151819.86    
     52200   303.76899     -184.20447      6724.9433      48.731617      2.3577398     -152531.61     -151812.66    
     52300   293.95946      47823.485      6724.9433      48.731617      2.3577398     -152489.22     -151793.48    
     52400   301.22357      33543.943      6724.9433      48.731617      2.3577398     -152471.5      -151758.58    
     52500   301.36803     -10525.683      6724.9433      48.731617      2.3577398     -152454.67     -151741.4     
     52600   301.87559     -4107.2621      6724.9433      48.731617      2.3577398     -152501.79     -151787.32    
     52700   292.92339     -16264.993      6724.9433      48.731617      2.3577398     -152517.38     -151824.1     
     52800   285.55217      19700.713      6724.9433      48.731617      2.3577398     -152501.79     -151825.96    
     52900   298.74918     -9694.3926      6724.9433      48.731617      2.3577398     -152507.17     -151800.1     
     53000   313.40743      73868.857      6724.9433      48.731617      2.3577398     -152507.41     -151765.65    
     53100   314.1516      -36005.222      6724.9433      48.731617      2.3577398     -152499.01     -151755.49    
     53200   307.55251      27096.242      6724.9433      48.731617      2.3577398     -152545.87     -151817.97    
     53300   296.34456      6009.0585      6724.9433      48.731617      2.3577398     -152537.65     -151836.27    
     53400   303.90446      26208.999      6724.9433      48.731617      2.3577398     -152538.65     -151819.38    
     53500   288.15517      25532.386      6724.9433      48.731617      2.3577398     -152469.92     -151787.92    
     53600   304.01472      57691.522      6724.9433      48.731617      2.3577398     -152489.54     -151770.01    
     53700   309.03332     -1602.0533      6724.9433      48.731617      2.3577398     -152515.46     -151784.05    
     53800   283.87441      71776.345      6724.9433      48.731617      2.3577398     -152496.26     -151824.4     
     53900   292.45322      47075.349      6724.9433      48.731617      2.3577398     -152531.1      -151838.93    
     54000   297.48267     -24260.905      6724.9433      48.731617      2.3577398     -152528.91     -151824.84    
     54100   313.28541      63824.266      6724.9433      48.731617      2.3577398     -152520.24     -151778.77    
     54200   305.26201      10177.24       6724.9433      48.731617      2.3577398     -152486.11     -151763.62    
     54300   306.89553      37548.816      6724.9433      48.731617      2.3577398     -152512.97     -151786.62    
     54400   293.12158     -7204.9109      6724.9433      48.731617      2.3577398     -152534.83     -151841.08    
     54500   293.49756      36722.165      6724.9433      48.731617      2.3577398     -152527.45     -151832.81    
     54600   295.46561      4133.5305      6724.9433      48.731617      2.3577398     -152505.07     -151805.78    
     54700   307.15551      13179.972      6724.9433      48.731617      2.3577398     -152501.82     -151774.86    
     54800   315.05564      27895.858      6724.9433      48.731617      2.3577398     -152526.42     -151780.75    
     54900   297.27939      10383.472      6724.9433      48.731617      2.3577398     -152528.92     -151825.33    
     55000   293.44641     -4870.1662      6724.9433      48.731617      2.3577398     -152548.71     -151854.19    
     55100   293.11848      21079.947      6724.9433      48.731617      2.3577398     -152537.91     -151844.17    
     55200   295.05051      9204.1291      6724.9433      48.731617      2.3577398     -152522.81     -151824.49    
     55300   288.28933      53622.389      6724.9433      48.731617      2.3577398     -152485.04     -151802.72    
     55400   302.30742     -9959.6842      6724.9433      48.731617      2.3577398     -152487.41     -151771.92    
     55500   304.75548     -22631.382      6724.9433      48.731617      2.3577398     -152494.92     -151773.64    
     55600   293.60787      49960.523      6724.9433      48.731617      2.3577398     -152530.03     -151835.13    
     55700   278.26207      32269.824      6724.9433      48.731617      2.3577398     -152510.44     -151851.86    
     55800   290.77099      18312.058      6724.9433      48.731617      2.3577398     -152511.7      -151823.51    
     55900   299.80558      23536.301      6724.9433      48.731617      2.3577398     -152498.42     -151788.85    
     56000   314.92619      31714.319      6724.9433      48.731617      2.3577398     -152525.88     -151780.52    
     56100   293.0603       44260.513      6724.9433      48.731617      2.3577398     -152483.92     -151790.32    
     56200   301.88982      8007.933       6724.9433      48.731617      2.3577398     -152540.61     -151826.11    
     56300   278.8047       46085.006      6724.9433      48.731617      2.3577398     -152524.85     -151864.98    
     56400   285.87318      7149.9844      6724.9433      48.731617      2.3577398     -152519.67     -151843.07    
     56500   299.55953      21225.913      6724.9433      48.731617      2.3577398     -152509.78     -151800.79    
     56600   304.01988      12069.452      6724.9433      48.731617      2.3577398     -152507.46     -151787.91    
     56700   310.49631      39581.145      6724.9433      48.731617      2.3577398     -152537.49     -151802.62    
     56800   310.24493      14143.116      6724.9433      48.731617      2.3577398     -152562.64     -151828.37    
     56900   283.7031       32323.741      6724.9433      48.731617      2.3577398     -152543.42     -151871.96    
     57000   281.80351      78026.321      6724.9433      48.731617      2.3577398     -152547.64     -151880.68    
     57100   288.20619     -10297.289      6724.9433      48.731617      2.3577398     -152506.17     -151824.05    
     57200   304.1193       37827.756      6724.9433      48.731617      2.3577398     -152525.96     -151806.18    
     57300   295.81711      28833.729      6724.9433      48.731617      2.3577398     -152488.29     -151788.16    
     57400   305.77145      4373.4673      6724.9433      48.731617      2.3577398     -152493.2      -151769.51    
     57500   294.53258      39092.333      6724.9433      48.731617      2.3577398     -152488.21     -151791.12    
     57600   293.51708      9813.2617      6724.9433      48.731617      2.3577398     -152531.13     -151836.45    
     57700   295.4378       16794.24       6724.9433      48.731617      2.3577398     -152537.86     -151838.63    
     57800   299.53161      26252.213      6724.9433      48.731617      2.3577398     -152527.5      -151818.58    
     57900   296.66927      29351.1        6724.9433      48.731617      2.3577398     -152502.36     -151800.21    
     58000   307.09169      46288.261      6724.9433      48.731617      2.3577398     -152517.62     -151790.8     
     58100   305.77836      20071.96       6724.9433      48.731617      2.3577398     -152512.92     -151789.22    
     58200   293.801        9596.3199      6724.9433      48.731617      2.3577398     -152505.84     -151810.48    
     58300   279.15952      16168.15       6724.9433      48.731617      2.3577398     -152529.54     -151868.84    
     58400   293.61243      17857.079      6724.9433      48.731617      2.3577398     -152542.05     -151847.14    
     58500   305.54908     -27399.165      6724.9433      48.731617      2.3577398     -152530.5      -151807.34    
     58600   304.3789      -4763.6413      6724.9433      48.731617      2.3577398     -152518.31     -151797.92    
     58700   300.5225      -15874.61       6724.9433      48.731617      2.3577398     -152516.12     -151804.86    
     58800   300.03203      19490.951      6724.9433      48.731617      2.3577398     -152518.04     -151807.93    
     58900   302.05895     -3860.3447      6724.9433      48.731617      2.3577398     -152526.78     -151811.88    
     59000   307.97836      34214.394      6724.9433      48.731617      2.3577398     -152542.26     -151813.35    
     59100   301.85789      54935.425      6724.9433      48.731617      2.3577398     -152533.03     -151818.6     
     59200   286.99597      25481.234      6724.9433      48.731617      2.3577398     -152484.84     -151805.59    
     59300   303.8912       35720.44       6724.9433      48.731617      2.3577398     -152482.1      -151762.87    
     59400   291.18433     -25589.626      6724.9433      48.731617      2.3577398     -152450.11     -151760.94    
     59500   306.21264     -9275.8187      6724.9433      48.731617      2.3577398     -152516.36     -151791.63    
     59600   300.6038      -1085.0544      6724.9433      48.731617      2.3577398     -152537.74     -151826.28    
     59700   287.05998     -45356.604      6724.9433      48.731617      2.3577398     -152509.7      -151830.3     
     59800   307.99505      43274.376      6724.9433      48.731617      2.3577398     -152539.55     -151810.59    
     59900   308.17238      33236.615      6724.9433      48.731617      2.3577398     -152509.25     -151779.87    
     60000   307.16363     -44827.681      6724.9433      48.731617      2.3577398     -152496.49     -151769.51    
     60100   303.27019      18881.144      6724.9433      48.731617      2.3577398     -152539.57     -151821.8     
     60200   292.81561      49476.368      6724.9433      48.731617      2.3577398     -152543.01     -151849.99    
     60300   302.16397      17375.4        6724.9433      48.731617      2.3577398     -152542.05     -151826.9     
     60400   303.76121      31016.385      6724.9433      48.731617      2.3577398     -152509.24     -151790.31    
     60500   301.72064      31899.056      6724.9433      48.731617      2.3577398     -152485.92     -151771.82    
     60600   307.93624      12557.596      6724.9433      48.731617      2.3577398     -152508.39     -151779.58    
     60700   312.94577      34890.837      6724.9433      48.731617      2.3577398     -152570.14     -151829.47    
     60800   292.00576      19356.402      6724.9433      48.731617      2.3577398     -152547.61     -151856.5     
     60900   290.74152      31334.783      6724.9433      48.731617      2.3577398     -152531.63     -151843.51    
     61000   291.40183      13553.279      6724.9433      48.731617      2.3577398     -152501.61     -151811.93    
     61100   300.42508     -4505.559       6724.9433      48.731617      2.3577398     -152495.23     -151784.19    
     61200   300.63073     -894.9658       6724.9433      48.731617      2.3577398     -152505.17     -151793.65    
     61300   300.52896      68644.311      6724.9433      48.731617      2.3577398     -152518.32     -151807.04    
     61400   297.98516      15563.324      6724.9433      48.731617      2.3577398     -152512.49     -151807.23    
     61500   300.84036      6802.5046      6724.9433      48.731617      2.3577398     -152519.09     -151807.07    
     61600   305.84711     -3226.6569      6724.9433      48.731617      2.3577398     -152532.11     -151808.25    
     61700   303.75013     -7667.7466      6724.9433      48.731617      2.3577398     -152530.26     -151811.36    
     61800   286.40938      19008.209      6724.9433      48.731617      2.3577398     -152526.44     -151848.57    
     61900   294.93404     -509.20313      6724.9433      48.731617      2.3577398     -152559.72     -151861.69    
     62000   299.37897     -33872.726      6724.9433      48.731617      2.3577398     -152534.52     -151825.96    
     62100   293.62691      55636.657      6724.9433      48.731617      2.3577398     -152491.83     -151796.89    
     62200   308.72136      59824.291      6724.9433      48.731617      2.3577398     -152512.16     -151781.49    
     62300   295.93346      1647.1144      6724.9433      48.731617      2.3577398     -152484.68     -151784.27    
     62400   307.00866      9889.3737      6724.9433      48.731617      2.3577398     -152519.3      -151792.69    
     62500   284.67683     -5859.3821      6724.9433      48.731617      2.3577398     -152530.11     -151856.35    
     62600   288.11097      70816.902      6724.9433      48.731617      2.3577398     -152545.89     -151863.99    
     62700   294.42989      19159.815      6724.9433      48.731617      2.3577398     -152522.87     -151826.02    
     62800   291.38379      28727.114      6724.9433      48.731617      2.3577398     -152488.38     -151798.74    
     62900   302.58852      33939.163      6724.9433      48.731617      2.3577398     -152506.36     -151790.21    
     63000   296.62069     -22568.968      6724.9433      48.731617      2.3577398     -152505.22     -151803.19    
     63100   284.5667       33414.253      6724.9433      48.731617      2.3577398     -152529.77     -151856.27    
     63200   286.04776      15828.378      6724.9433      48.731617      2.3577398     -152540.3      -151863.29    
     63300   295.00816     -22348.113      6724.9433      48.731617      2.3577398     -152529.09     -151830.88    
     63400   299.62094      72029.074      6724.9433      48.731617      2.3577398     -152512.04     -151802.91    
     63500   297.05475     -15374.459      6724.9433      48.731617      2.3577398     -152501.5      -151798.44    
     63600   311.09222      58747.354      6724.9433      48.731617      2.3577398     -152531.91     -151795.63    
     63700   299.06955     -10564.535      6724.9433      48.731617      2.3577398     -152528.83     -151821       
     63800   291.40456      23292.526      6724.9433      48.731617      2.3577398     -152559.63     -151869.95    
     63900   290.95131      35813.831      6724.9433      48.731617      2.3577398     -152550.62     -151862.01    
     64000   292.71915     -29577.686      6724.9433      48.731617      2.3577398     -152520.62     -151827.83    
     64100   294.68715      23090.526      6724.9433      48.731617      2.3577398     -152507.48     -151810.02    
     64200   303.97616     -20985.577      6724.9433      48.731617      2.3577398     -152512.44     -151793       
     64300   311.4269       32747.124      6724.9433      48.731617      2.3577398     -152545.74     -151808.67    
     64400   285.26179     -22569.207      6724.9433      48.731617      2.3577398     -152528.09     -151852.95    
     64500   298.30968      33265.955      6724.9433      48.731617      2.3577398     -152547.07     -151841.05    
[...]
    384200   299.1053      -24626.416      6724.9433      48.731617      2.3577398     -152496.59     -151788.68    
    384300   308.94355      35888.012      6724.9433      48.731617      2.3577398     -152516.66     -151785.47    
    384400   302.52161      906.81503      6724.9433      48.731617      2.3577398     -152539.94     -151823.94    
    384500   290.52034      23517.32       6724.9433      48.731617      2.3577398     -152539.57     -151851.98    
    384600   287.96733      27037.026      6724.9433      48.731617      2.3577398     -152519.24     -151837.69    
    384700   299.18709     -87.559235      6724.9433      48.731617      2.3577398     -152503.69     -151795.59    
    384800   304.41196      29214.81       6724.9433      48.731617      2.3577398     -152511.95     -151791.48    
    384900   306.67022      4330.1981      6724.9433      48.731617      2.3577398     -152527.76     -151801.94    
    385000   286.43004      56333.747      6724.9433      48.731617      2.3577398     -152524.75     -151846.83    
    385100   290.60341      56403.459      6724.9433      48.731617      2.3577398     -152559.72     -151871.93    
    385200   296.89523     -5002.8061      6724.9433      48.731617      2.3577398     -152554.08     -151851.4     
    385300   293.28638     -1260.7937      6724.9433      48.731617      2.3577398     -152523.46     -151829.32    
    385400   295.40452     -14178.373      6724.9433      48.731617      2.3577398     -152499.29     -151800.14    
    385500   307.18482     -9281.716       6724.9433      48.731617      2.3577398     -152519.28     -151792.24    
    385600   292.72957      11751.756      6724.9433      48.731617      2.3577398     -152508.11     -151815.29    
    385700   286.13558      15362.517      6724.9433      48.731617      2.3577398     -152501.43     -151824.22    
    385800   304.09517     -30510.581      6724.9433      48.731617      2.3577398     -152540.36     -151820.64    
    385900   299.85458      3895.7653      6724.9433      48.731617      2.3577398     -152535.35     -151825.67    
    386000   296.42413      75752.486      6724.9433      48.731617      2.3577398     -152507.19     -151805.62    
    386100   312.79237     -10478.765      6724.9433      48.731617      2.3577398     -152496.36     -151756.05    
    386200   304.57282      15286.94       6724.9433      48.731617      2.3577398     -152495.8      -151774.95    
    386300   294.3044       33941.445      6724.9433      48.731617      2.3577398     -152502.66     -151806.11    
    386400   289.67625      12422.179      6724.9433      48.731617      2.3577398     -152502.16     -151816.57    
    386500   301.49849      31884.275      6724.9433      48.731617      2.3577398     -152531.62     -151818.04    
    386600   308.58348      13880.562      6724.9433      48.731617      2.3577398     -152547.56     -151817.22    
    386700   295.88026      9826.8771      6724.9433      48.731617      2.3577398     -152528.37     -151828.09    
    386800   295.10255      60301.21       6724.9433      48.731617      2.3577398     -152544.59     -151846.15    
    386900   287.61281      12488.275      6724.9433      48.731617      2.3577398     -152528.27     -151847.56    
    387000   298.26286      37361.185      6724.9433      48.731617      2.3577398     -152512.58     -151806.66    
    387100   314.77567      14357.686      6724.9433      48.731617      2.3577398     -152528.01     -151783.01    
    387200   307.52368      41836.576      6724.9433      48.731617      2.3577398     -152529.13     -151801.3     
    387300   292.21318     -4401.1222      6724.9433      48.731617      2.3577398     -152521.81     -151830.22    
    387400   297.58354      16483.51       6724.9433      48.731617      2.3577398     -152532.89     -151828.58    
    387500   287.83481      65580.858      6724.9433      48.731617      2.3577398     -152505.19     -151823.95    
    387600   290.48647      34512.733      6724.9433      48.731617      2.3577398     -152497.47     -151809.95    
    387700   306.81263     -19266.108      6724.9433      48.731617      2.3577398     -152513.39     -151787.24    
    387800   293.40737      18130.031      6724.9433      48.731617      2.3577398     -152475.24     -151780.81    
    387900   295.01584      391.36852      6724.9433      48.731617      2.3577398     -152511.6      -151813.37    
    388000   309.05521      13511.591      6724.9433      48.731617      2.3577398     -152577.53     -151846.07    
    388100   297.11039      9641.0411      6724.9433      48.731617      2.3577398     -152556.04     -151852.85    
    388200   309.16794      33212.716      6724.9433      48.731617      2.3577398     -152545.22     -151813.49    
    388300   307.40286      20241.113      6724.9433      48.731617      2.3577398     -152508.21     -151780.66    
    388400   294.60445      29641.455      6724.9433      48.731617      2.3577398     -152480.05     -151782.79    
    388500   300.14447     -41444.625      6724.9433      48.731617      2.3577398     -152515.37     -151805       
    388600   290.80352      54686.911      6724.9433      48.731617      2.3577398     -152520.19     -151831.93    
    388700   299.40459      5601.0337      6724.9433      48.731617      2.3577398     -152538.71     -151830.09    
    388800   308.12121      309.85071      6724.9433      48.731617      2.3577398     -152559.56     -151830.31    
    388900   301.16215      46753.54       6724.9433      48.731617      2.3577398     -152539.77     -151826.99    
    389000   308.7546       14592.564      6724.9433      48.731617      2.3577398     -152526.1      -151795.35    
    389100   309.86621     -16745.395      6724.9433      48.731617      2.3577398     -152474.84     -151741.46    
    389200   315.09749      49098.135      6724.9433      48.731617      2.3577398     -152493.25     -151747.49    
    389300   301.44008      13899.841      6724.9433      48.731617      2.3577398     -152494.25     -151780.81    
    389400   299.88083      3626.3826      6724.9433      48.731617      2.3577398     -152518.08     -151808.34    
    389500   307.64585      48864.362      6724.9433      48.731617      2.3577398     -152547.68     -151819.56    
    389600   294.60585      27087.575      6724.9433      48.731617      2.3577398     -152519.4      -151822.14    
    389700   302.18893     -1496.9671      6724.9433      48.731617      2.3577398     -152510.48     -151795.27    
    389800   302.62233      36665.653      6724.9433      48.731617      2.3577398     -152483.74     -151767.5     
    389900   295.6736      -11392.788      6724.9433      48.731617      2.3577398     -152483.54     -151783.75    
    390000   310.00484      32124.285      6724.9433      48.731617      2.3577398     -152566.17     -151832.46    
    390100   299.44292      14917.223      6724.9433      48.731617      2.3577398     -152555.67     -151846.96    
    390200   300.61091     -15715.601      6724.9433      48.731617      2.3577398     -152545.56     -151834.09    
    390300   309.834        39354.555      6724.9433      48.731617      2.3577398     -152533.27     -151799.97    
    390400   306.88508      4780.6045      6724.9433      48.731617      2.3577398     -152521.62     -151795.29    
    390500   292.07482     -48945.616      6724.9433      48.731617      2.3577398     -152496.82     -151805.55    
    390600   292.60484      80558.795      6724.9433      48.731617      2.3577398     -152495.93     -151803.4     
    390700   295.09237     -28866.903      6724.9433      48.731617      2.3577398     -152496.06     -151797.65    
    390800   298.73129      11514.161      6724.9433      48.731617      2.3577398     -152523.52     -151816.49    
    390900   299.06321      69018.499      6724.9433      48.731617      2.3577398     -152557.06     -151849.25    
    391000   287.54381     -40373.749      6724.9433      48.731617      2.3577398     -152513.35     -151832.81    
    391100   292.7819       63456.943      6724.9433      48.731617      2.3577398     -152480.46     -151787.51    
    391200   294.62407     -30290.78       6724.9433      48.731617      2.3577398     -152474.76     -151777.45    
    391300   300.44228     -36163.043      6724.9433      48.731617      2.3577398     -152512.42     -151801.34    
    391400   291.57066      42189.724      6724.9433      48.731617      2.3577398     -152514.49     -151824.41    
    391500   298.43319     -19877.133      6724.9433      48.731617      2.3577398     -152518.09     -151811.76    
    391600   309.79122      10616.511      6724.9433      48.731617      2.3577398     -152531.61     -151798.41    
    391700   304.83761      24313.985      6724.9433      48.731617      2.3577398     -152527.55     -151806.07    
    391800   282.8012      -15334.532      6724.9433      48.731617      2.3577398     -152536.13     -151866.81    
    391900   282.57104      25351.595      6724.9433      48.731617      2.3577398     -152540.03     -151871.25    
    392000   281.62801      29052.094      6724.9433      48.731617      2.3577398     -152500.5      -151833.95    
    392100   290.34598      30096.142      6724.9433      48.731617      2.3577398     -152488.43     -151801.25    
    392200   300.83788      9371.7019      6724.9433      48.731617      2.3577398     -152503.72     -151791.71    
    392300   303.65762      73116.514      6724.9433      48.731617      2.3577398     -152505.95     -151787.27    
    392400   315.57445     -7585.5662      6724.9433      48.731617      2.3577398     -152555.03     -151808.14    
    392500   293.85583      28030.96       6724.9433      48.731617      2.3577398     -152544.82     -151849.33    
    392600   305.63593      40659.225      6724.9433      48.731617      2.3577398     -152565.6      -151842.24    
    392700   310.12281      42028.35       6724.9433      48.731617      2.3577398     -152537.33     -151803.35    
    392800   310.10149      27274.126      6724.9433      48.731617      2.3577398     -152526.51     -151792.57    
    392900   301.30996      12716.969      6724.9433      48.731617      2.3577398     -152512.29     -151799.16    
    393000   302.15297      30700.637      6724.9433      48.731617      2.3577398     -152529.31     -151814.18    
    393100   299.13163      57026.286      6724.9433      48.731617      2.3577398     -152543.58     -151835.61    
    393200   297.19044      11717.01       6724.9433      48.731617      2.3577398     -152584.09     -151880.71    
    393300   286.63928     -3947.4374      6724.9433      48.731617      2.3577398     -152565.76     -151887.36    
    393400   298.66894      52471.154      6724.9433      48.731617      2.3577398     -152545.04     -151838.16    
    393500   296.80291      11546.186      6724.9433      48.731617      2.3577398     -152517.28     -151814.82    
    393600   307.93204     -17483.122      6724.9433      48.731617      2.3577398     -152531.38     -151802.58    
    393700   305.84908      65824.955      6724.9433      48.731617      2.3577398     -152535.43     -151811.56    
    393800   295.40595      6039.2205      6724.9433      48.731617      2.3577398     -152548.92     -151849.77    
    393900   286.29907      22728.103      6724.9433      48.731617      2.3577398     -152547.81     -151870.2     
    394000   287.30615      100021.85      6724.9433      48.731617      2.3577398     -152504.43     -151824.44    
    394100   304.08127      4738.3923      6724.9433      48.731617      2.3577398     -152509.3      -151789.61    
    394200   300.57449      31561.261      6724.9433      48.731617      2.3577398     -152511.5      -151800.12    
    394300   295.68208      66485.055      6724.9433      48.731617      2.3577398     -152509.88     -151810.07    
    394400   299.56525     -16331.924      6724.9433      48.731617      2.3577398     -152514.7      -151805.7     
    394500   306.68544      11391.927      6724.9433      48.731617      2.3577398     -152509.34     -151783.49    
    394600   314.84318      17277.972      6724.9433      48.731617      2.3577398     -152502.96     -151757.8     
    394700   307.04384     -2271.993       6724.9433      48.731617      2.3577398     -152515.35     -151788.65    
    394800   300.95827      3881.154       6724.9433      48.731617      2.3577398     -152542.12     -151829.82    
    394900   292.82531     -17559.456      6724.9433      48.731617      2.3577398     -152530.86     -151837.81    
    395000   306.57567      12001.919      6724.9433      48.731617      2.3577398     -152545.71     -151820.12    
    395100   295.75779      7873.8961      6724.9433      48.731617      2.3577398     -152483.82     -151783.83    
    395200   304.59136      16888.621      6724.9433      48.731617      2.3577398     -152463.06     -151742.17    
    395300   317.80426      9939.5256      6724.9433      48.731617      2.3577398     -152507.64     -151755.47    
    395400   304.33225      17141.992      6724.9433      48.731617      2.3577398     -152499.86     -151779.58    
    395500   303.83472     -2819.619       6724.9433      48.731617      2.3577398     -152519.96     -151800.86    
    395600   295.01695     -3376.7931      6724.9433      48.731617      2.3577398     -152510.89     -151812.66    
    395700   295.69465      35268.361      6724.9433      48.731617      2.3577398     -152507.11     -151807.27    
    395800   314.29251      32188.211      6724.9433      48.731617      2.3577398     -152518.76     -151774.91    
    395900   308.15476     -2865.0602      6724.9433      48.731617      2.3577398     -152490.74     -151761.41    
    396000   306.41954     -9117.067       6724.9433      48.731617      2.3577398     -152503.04     -151777.82    
    396100   291.51575     -27902.051      6724.9433      48.731617      2.3577398     -152512.29     -151822.34    
    396200   287.4878      -12048.872      6724.9433      48.731617      2.3577398     -152515.34     -151834.92    
    396300   302.74557     -528.24264      6724.9433      48.731617      2.3577398     -152541.46     -151824.93    
    396400   305.16664      35110.899      6724.9433      48.731617      2.3577398     -152502.94     -151780.68    
    396500   305.04407     -25998.353      6724.9433      48.731617      2.3577398     -152463.08     -151741.12    
    396600   312.48005      13738.192      6724.9433      48.731617      2.3577398     -152501.74     -151762.18    
    396700   296.93931     -25715.489      6724.9433      48.731617      2.3577398     -152512.2      -151809.41    
    396800   294.1924       54472.206      6724.9433      48.731617      2.3577398     -152511.66     -151815.38    
    396900   305.87985     -5489.2907      6724.9433      48.731617      2.3577398     -152532.61     -151808.67    
    397000   313.76542     -24970.035      6724.9433      48.731617      2.3577398     -152530.22     -151787.62    
    397100   301.68729      59565.071      6724.9433      48.731617      2.3577398     -152471.08     -151757.05    
    397200   310.43183      7717.9462      6724.9433      48.731617      2.3577398     -152481.15     -151746.43    
    397300   303.41661      4025.7038      6724.9433      48.731617      2.3577398     -152518.37     -151800.26    
    397400   293.59625      26572.251      6724.9433      48.731617      2.3577398     -152523.81     -151828.94    
    397500   293.43186      49318.902      6724.9433      48.731617      2.3577398     -152526.81     -151832.33    
    397600   308.40482      31701.382      6724.9433      48.731617      2.3577398     -152531.16     -151801.24    
    397700   302.36522      40376.712      6724.9433      48.731617      2.3577398     -152483.91     -151768.29    
    397800   297.79356      27942.691      6724.9433      48.731617      2.3577398     -152477.49     -151772.68    
    397900   309.14962      5565.8232      6724.9433      48.731617      2.3577398     -152529.06     -151797.37    
    398000   309.75481      35484.887      6724.9433      48.731617      2.3577398     -152537.3      -151804.19    
    398100   297.43892      26999.87       6724.9433      48.731617      2.3577398     -152526.16     -151822.19    
    398200   300.43073     -14849.93       6724.9433      48.731617      2.3577398     -152528.79     -151817.74    
    398300   303.21075      55168.436      6724.9433      48.731617      2.3577398     -152490.44     -151772.81    
    398400   310.98891      9539.7095      6724.9433      48.731617      2.3577398     -152486.52     -151750.48    
    398500   303.01008      59491.599      6724.9433      48.731617      2.3577398     -152485.61     -151768.46    
    398600   294.02153      69238.939      6724.9433      48.731617      2.3577398     -152527.4      -151831.52    
    398700   284.41511     -32210.589      6724.9433      48.731617      2.3577398     -152511.91     -151838.76    
    398800   284.89996      4467.188       6724.9433      48.731617      2.3577398     -152490.95     -151816.66    
    398900   306.41158      51955.544      6724.9433      48.731617      2.3577398     -152505.17     -151779.96    
    399000   309.3806       8690.8941      6724.9433      48.731617      2.3577398     -152514.08     -151781.85    
    399100   297.9107      -16564.288      6724.9433      48.731617      2.3577398     -152527.54     -151822.46    
    399200   302.41339      62015.295      6724.9433      48.731617      2.3577398     -152561.76     -151846.02    
    399300   294.43433     -49809.558      6724.9433      48.731617      2.3577398     -152527.65     -151830.79    
    399400   294.91946      21128.185      6724.9433      48.731617      2.3577398     -152510.08     -151812.08    
    399500   308.57391      6362.48        6724.9433      48.731617      2.3577398     -152525.71     -151795.39    
    399600   307.19147      5138.2273      6724.9433      48.731617      2.3577398     -152524.01     -151796.96    
    399700   293.06439      20312.595      6724.9433      48.731617      2.3577398     -152521.56     -151827.95    
    399800   280.05475     -9440.5483      6724.9433      48.731617      2.3577398     -152520.83     -151858       
    399900   282.60414      11645.058      6724.9433      48.731617      2.3577398     -152506.51     -151837.66    
    400000   299.31586      31363.582      6724.9433      48.731617      2.3577398     -152502.27     -151793.86    
    400011   298.82017     -22373.152      6724.9433      48.731617      2.3577398     -152499.44     -151792.2     
Loop time of 15385.1 on 64 procs for 400000 steps with 795 atoms

Performance: 0.562 ns/day, 42.737 hours/ns, 25.999 timesteps/s
99.6% CPU use with 64 MPI tasks x 1 OpenMP threads

MPI task timing breakdown:
Section |  min time  |  avg time  |  max time  |%varavg| %total
---------------------------------------------------------------
Pair    | 8779.9     | 11135      | 13982      |1455.6 | 72.38
Neigh   | 54.894     | 71.269     | 89.043     | 110.5 |  0.46
Comm    | 151        | 2716.6     | 5146.3     |2727.2 | 17.66
Output  | 0.50821    | 1.3341     | 2.0724     |  46.9 |  0.01
Modify  | 1159.3     | 1457.6     | 2336.8     | 831.6 |  9.47
Other   |            | 2.919      |            |       |  0.02

Nlocal:        12.4219 ave          16 max           7 min
Histogram: 1 1 1 11 5 17 7 6 13 2
Nghost:        2169.58 ave        2504 max        1902 min
Histogram: 7 9 1 12 13 6 3 6 3 4
Neighs:        6864.88 ave        9148 max        3392 min
Histogram: 2 2 4 8 8 7 9 6 4 14

Total # of neighbors = 439352
Ave neighs/atom = 552.64403
Neighbor list builds = 6619
Dangerous builds = 0

write_data graphene_single_layer_ReaxFF_750_C_temp_300K.data ### MODIFY FILE NAME ###
System init for write_data ...
Total wall time: 4:16:27
