
# System definition
read_data graphene_single_layer_x-45_y-45_795_C.data ### MODIFY FILE NAME ###
Reading data file ...
  orthogonal box = (-1.4464652 -1.4423034 -1.42) to (47.285152 47.149102 1.42)
  8 by 8 by 1 MPI processor grid
  reading atoms ...
  795 atoms
  reading velocities ...
  795 velocities
  read_data CPU = 0.033 seconds

pair_style reax/c NULL
pair_coeff * * ffield.reax.cho C
Reading potential file ffield.reax.cho with DATE: 2011-02-18
fix qeq_reax all qeq/reax 1 0.0 10.0 1.0e-6 reax/c


# Minimization
timestep 0.25
min_style cg
thermo 100
thermo_style custom step temp press vol lx density pe etotal
dump 2 all custom 1000 graphene_single_layer_ReaxFF_795_C_temp_40K.lammpstrj id type x y z ### MODIFY FILE NAME ###
minimize 1.0e-6 1.0e-6 100 1000

CITE-CITE-CITE-CITE-CITE-CITE-CITE-CITE-CITE-CITE-CITE-CITE-CITE

Your simulation uses code contributions which should be cited:

- pair reaxff command:

@Article{Aktulga12,
 author = {H. M. Aktulga, J. C. Fogarty, S. A. Pandit, A. Y. Grama},
 title = {Parallel reactive molecular dynamics: Numerical methods and algorithmic techniques},
 journal = {Parallel Computing},
 year =    2012,
 volume =  38,
 pages =   {245--259}
}

- fix qeq/reaxff command:

@Article{Aktulga12,
 author = {H. M. Aktulga, J. C. Fogarty, S. A. Pandit, A. Y. Grama},
 title = {Parallel reactive molecular dynamics: Numerical methods and algorithmic techniques},
 journal = {Parallel Computing},
 year =    2012,
 volume =  38,
 pages =   {245--259}
}

CITE-CITE-CITE-CITE-CITE-CITE-CITE-CITE-CITE-CITE-CITE-CITE-CITE

WARNING: Using 'neigh_modify every 1 delay 0 check yes' setting during minimization (src/min.cpp:187)
Neighbor list info ...
  update every 1 steps, delay 0 steps, check yes
  max neighbors/atom: 10000, page size: 100000
  master list distance cutoff = 10.4
  ghost atom cutoff = 10.4
  binsize = 5.2, bins = 10 10 1
  2 neighbor lists, perpetual/occasional/extra = 2 0 0
  (1) pair reax/c, perpetual
      attributes: half, newton off, ghost
      pair build: half/bin/newtoff/ghost
      stencil: full/ghost/bin/3d
      bin: standard
  (2) fix qeq/reax, perpetual, copy from (1)
      attributes: half, newton off
      pair build: copy
      stencil: none
      bin: none
Per MPI rank memory allocation (min/avg/max) = 36.37 | 41.41 | 47.38 Mbytes
   Step          Temp          Press          Volume           Lx          Density         PotEng         TotEng    
         0   923            34054.396      6724.9433      48.731617      2.3577398     -151766.67     -149582.14    
        11   923            35396.792      6724.9433      48.731617      2.3577398     -151904.55     -149720.03    
Loop time of 2.16351 on 64 procs for 11 steps with 795 atoms

99.3% CPU use with 64 MPI tasks x 1 OpenMP threads

Minimization stats:
  Stopping criterion = energy tolerance
  Energy initial, next-to-last, final = 
     -151766.666472543  -151904.508881892  -151904.547898656
  Force two-norm initial, final = 279.94165 356.09863
  Force max component initial, final = 137.99181 55.448555
  Final line search alpha, max atom move = 0.00038853166 0.021543519
  Iterations, force evaluations = 11 32

MPI task timing breakdown:
Section |  min time  |  avg time  |  max time  |%varavg| %total
---------------------------------------------------------------
Pair    | 0.83445    | 1.2437     | 1.6316     |  16.1 | 57.49
Neigh   | 0.011144   | 0.018236   | 0.026992   |   2.8 |  0.84
Comm    | 0.038978   | 0.49523    | 0.93587    |  25.3 | 22.89
Output  | 0          | 0          | 0          |   0.0 |  0.00
Modify  | 0.30509    | 0.31379    | 0.32083    |   0.7 | 14.50
Other   |            | 0.09253    |            |       |  4.28

Nlocal:        12.4219 ave          15 max          10 min
Histogram: 15 0 0 0 22 0 12 0 0 15
Nghost:        2194.12 ave        2559 max        1869 min
Histogram: 2 8 9 4 12 12 5 4 6 2
Neighs:        6807.34 ave        8856 max        4476 min
Histogram: 4 8 3 7 7 13 5 2 0 15

Total # of neighbors = 435670
Ave neighs/atom = 548.01258
Neighbor list builds = 1
Dangerous builds = 0

fix 1 all nvt temp 40.0 40.0 $(100.0*dt)  ### MODIFY INIT TEMP, FINAL TEMP ###
fix 1 all nvt temp 40.0 40.0 25  
run 400000
Per MPI rank memory allocation (min/avg/max) = 35.25 | 40.29 | 46.26 Mbytes
   Step          Temp          Press          Volume           Lx          Density         PotEng         TotEng    
        11   923            35396.792      6724.9433      48.731617      2.3577398     -151904.55     -149720.03    
       100   311.32636      53125.275      6724.9433      48.731617      2.3577398     -151500.21     -150763.38    
       200   157.44753      62649.433      6724.9433      48.731617      2.3577398     -151951.22     -151578.58    
       300   118.32789     -35953.523      6724.9433      48.731617      2.3577398     -152295.68     -152015.62    
       400   86.481623      21035.283      6724.9433      48.731617      2.3577398     -152455.78     -152251.1     
       500   105.74676      9316.2126      6724.9433      48.731617      2.3577398     -152731.78     -152481.51    
       600   55.65795       27573.242      6724.9433      48.731617      2.3577398     -152752.13     -152620.4     
       700   44.891978      37801.552      6724.9433      48.731617      2.3577398     -152812.35     -152706.1     
       800   41.032708      18869.334      6724.9433      48.731617      2.3577398     -152858.95     -152761.84    
       900   34.454182      32080.669      6724.9433      48.731617      2.3577398     -152873.43     -152791.89    
      1000   32.255637      13405.954      6724.9433      48.731617      2.3577398     -152871.46     -152795.12    
      1100   36.106878      39302.196      6724.9433      48.731617      2.3577398     -152860.15     -152774.7     
      1200   46.361988     -15254.626      6724.9433      48.731617      2.3577398     -152859.31     -152749.58    
      1300   44.298414      59485.994      6724.9433      48.731617      2.3577398     -152846.42     -152741.58    
      1400   40.861483      4916.6893      6724.9433      48.731617      2.3577398     -152851.41     -152754.7     
      1500   38.305162      36898.035      6724.9433      48.731617      2.3577398     -152862.96     -152772.3     
      1600   38.978715      10421.683      6724.9433      48.731617      2.3577398     -152871        -152778.75    
      1700   38.204117      25495.708      6724.9433      48.731617      2.3577398     -152861.99     -152771.57    
      1800   44.402442      22676.868      6724.9433      48.731617      2.3577398     -152863.26     -152758.17    
      1900   43.395371      20573.313      6724.9433      48.731617      2.3577398     -152856.08     -152753.37    
      2000   40.883756      20361.113      6724.9433      48.731617      2.3577398     -152855.25     -152758.48    
      2100   38.827473      30419.338      6724.9433      48.731617      2.3577398     -152859.19     -152767.29    
      2200   38.2958        30667.652      6724.9433      48.731617      2.3577398     -152862.68     -152772.04    
      2300   40.345731      17868.116      6724.9433      48.731617      2.3577398     -152863.3      -152767.82    
      2400   40.746226      36281.933      6724.9433      48.731617      2.3577398     -152855.33     -152758.89    
      2500   43.177737      21758.295      6724.9433      48.731617      2.3577398     -152856.38     -152754.19    
      2600   42.26986       42805.132      6724.9433      48.731617      2.3577398     -152859.29     -152759.25    
      2700   37.207305      4545.1268      6724.9433      48.731617      2.3577398     -152856.58     -152768.52    
      2800   37.287607      45585.391      6724.9433      48.731617      2.3577398     -152860.49     -152772.24    
      2900   40.214826      35090.602      6724.9433      48.731617      2.3577398     -152862.61     -152767.43    
      3000   40.570657      18964.043      6724.9433      48.731617      2.3577398     -152855.89     -152759.87    
      3100   40.233948      17256.298      6724.9433      48.731617      2.3577398     -152851.1      -152755.88    
      3200   41.408921      40773.552      6724.9433      48.731617      2.3577398     -152857.38     -152759.37    
      3300   39.062129      23057.846      6724.9433      48.731617      2.3577398     -152860.39     -152767.94    
      3400   38.08675       9470.3789      6724.9433      48.731617      2.3577398     -152862.97     -152772.83    
      3500   38.423519      24995.43       6724.9433      48.731617      2.3577398     -152859        -152768.06    
      3600   41.625068      13849.142      6724.9433      48.731617      2.3577398     -152857.3      -152758.78    
      3700   42.363965      18284.005      6724.9433      48.731617      2.3577398     -152855.67     -152755.41    
      3800   40.608493      15911.645      6724.9433      48.731617      2.3577398     -152856.17     -152760.06    
      3900   40.922277      21022.12       6724.9433      48.731617      2.3577398     -152863.32     -152766.47    
      4000   38.179033      15412.861      6724.9433      48.731617      2.3577398     -152858.17     -152767.81    
      4100   39.305945      28062.447      6724.9433      48.731617      2.3577398     -152858.24     -152765.21    
      4200   40.600499      11809.181      6724.9433      48.731617      2.3577398     -152857.57     -152761.48    
      4300   41.010226      9970.6272      6724.9433      48.731617      2.3577398     -152857.41     -152760.35    
      4400   39.504352      32808.273      6724.9433      48.731617      2.3577398     -152855.74     -152762.24    
      4500   39.840471      8208.1541      6724.9433      48.731617      2.3577398     -152858.78     -152764.49    
      4600   39.181689      7571.5993      6724.9433      48.731617      2.3577398     -152858.03     -152765.3     
      4700   40.292783      23648.808      6724.9433      48.731617      2.3577398     -152860.41     -152765.05    
      4800   41.496022      47352.622      6724.9433      48.731617      2.3577398     -152862.96     -152764.75    
      4900   39.934634      16783.193      6724.9433      48.731617      2.3577398     -152858.22     -152763.7     
      5000   39.580928      32506.983      6724.9433      48.731617      2.3577398     -152854.78     -152761.1     
      5100   39.786342      25171.501      6724.9433      48.731617      2.3577398     -152854.13     -152759.97    
      5200   39.680398      28808.744      6724.9433      48.731617      2.3577398     -152855.35     -152761.44    
      5300   39.556884      31620.732      6724.9433      48.731617      2.3577398     -152857.81     -152764.19    
      5400   39.247212      29182.521      6724.9433      48.731617      2.3577398     -152859.77     -152766.88    
      5500   37.853955      25102.898      6724.9433      48.731617      2.3577398     -152857.52     -152767.93    
      5600   39.336782      21628.11       6724.9433      48.731617      2.3577398     -152859.26     -152766.16    
      5700   39.323751      24874.404      6724.9433      48.731617      2.3577398     -152855.17     -152762.1     
      5800   40.014367      11216.515      6724.9433      48.731617      2.3577398     -152853.84     -152759.13    
      5900   41.095221      31417.163      6724.9433      48.731617      2.3577398     -152856.79     -152759.53    
      6000   41.022583      6211.1522      6724.9433      48.731617      2.3577398     -152860.21     -152763.12    
      6100   39.941916      29582.896      6724.9433      48.731617      2.3577398     -152864.52     -152769.99    
      6200   39.554718      9226.365       6724.9433      48.731617      2.3577398     -152866.27     -152772.66    
      6300   40.44773       28217.988      6724.9433      48.731617      2.3577398     -152864.56     -152768.83    
      6400   39.678472      21056.561      6724.9433      48.731617      2.3577398     -152855.61     -152761.7     
      6500   40.915002      33163.167      6724.9433      48.731617      2.3577398     -152854.29     -152757.46    
      6600   41.297154      20555.877      6724.9433      48.731617      2.3577398     -152857        -152759.26    
      6700   39.653096      29978.638      6724.9433      48.731617      2.3577398     -152858.9      -152765.05    
      6800   39.168628      13639.407      6724.9433      48.731617      2.3577398     -152861.43     -152768.72    
      6900   40.823066      27765.801      6724.9433      48.731617      2.3577398     -152863.21     -152766.59    
      7000   40.606201      10854.472      6724.9433      48.731617      2.3577398     -152858.29     -152762.19    
      7100   38.5781        22239.896      6724.9433      48.731617      2.3577398     -152852.9      -152761.6     
      7200   40.143957      21029.462      6724.9433      48.731617      2.3577398     -152859.43     -152764.41    
      7300   38.381824      30953.224      6724.9433      48.731617      2.3577398     -152857.86     -152767.02    
      7400   41.413025      14193.303      6724.9433      48.731617      2.3577398     -152865.16     -152767.15    
      7500   40.619221      20734.705      6724.9433      48.731617      2.3577398     -152864.18     -152768.04    
      7600   38.525586      24722.028      6724.9433      48.731617      2.3577398     -152859.41     -152768.23    
      7700   40.06084       21626.809      6724.9433      48.731617      2.3577398     -152860.09     -152765.27    
      7800   40.409267      6111.6057      6724.9433      48.731617      2.3577398     -152857.37     -152761.73    
      7900   40.628307      22381.544      6724.9433      48.731617      2.3577398     -152858.28     -152762.13    
      8000   39.264792      12480.266      6724.9433      48.731617      2.3577398     -152856.11     -152763.18    
      8100   38.594205      17072.338      6724.9433      48.731617      2.3577398     -152856.17     -152764.82    
      8200   39.851139      9071.0537      6724.9433      48.731617      2.3577398     -152861.82     -152767.5     
      8300   39.623399      33279.379      6724.9433      48.731617      2.3577398     -152861.44     -152767.66    
      8400   38.475204      8398.4723      6724.9433      48.731617      2.3577398     -152857.3      -152766.24    
      8500   39.125088      27466.476      6724.9433      48.731617      2.3577398     -152858        -152765.4     
      8600   40.858428      17149.357      6724.9433      48.731617      2.3577398     -152859.98     -152763.28    
      8700   41.860134      29628.008      6724.9433      48.731617      2.3577398     -152861.62     -152762.55    
      8800   40.695332      26051.982      6724.9433      48.731617      2.3577398     -152860.14     -152763.83    
      8900   39.849476      30204.061      6724.9433      48.731617      2.3577398     -152859.58     -152765.26    
      9000   39.90376       10151.556      6724.9433      48.731617      2.3577398     -152861.74     -152767.29    
      9100   39.039797      24881.732      6724.9433      48.731617      2.3577398     -152859.93     -152767.53    
      9200   39.784559      25917.263      6724.9433      48.731617      2.3577398     -152859.61     -152765.45    
      9300   41.676606      25603.07       6724.9433      48.731617      2.3577398     -152860.74     -152762.1     
      9400   41.183585      20553.651      6724.9433      48.731617      2.3577398     -152859.29     -152761.82    
      9500   40.673343      44740.184      6724.9433      48.731617      2.3577398     -152861.42     -152765.16    
      9600   40.143145      19295.197      6724.9433      48.731617      2.3577398     -152862.08     -152767.07    
      9700   38.870432      19374.934      6724.9433      48.731617      2.3577398     -152859.54     -152767.54    
      9800   39.918027      37999.642      6724.9433      48.731617      2.3577398     -152860.27     -152765.8     
      9900   39.532268      19971.228      6724.9433      48.731617      2.3577398     -152859.09     -152765.53    
     10000   39.150387      31264.992      6724.9433      48.731617      2.3577398     -152858.06     -152765.4     
     10100   40.361343      29284.699      6724.9433      48.731617      2.3577398     -152858.27     -152762.75    
     10200   41.090151      26587.893      6724.9433      48.731617      2.3577398     -152857.46     -152760.21    
     10300   39.571789      15212.941      6724.9433      48.731617      2.3577398     -152855.86     -152762.2     
     10400   39.36564       17500.521      6724.9433      48.731617      2.3577398     -152858.47     -152765.3     
     10500   38.385388      16490.516      6724.9433      48.731617      2.3577398     -152857.87     -152767.03    
     10600   39.127417      4413.2901      6724.9433      48.731617      2.3577398     -152859.3      -152766.7     
     10700   39.963686      25641.223      6724.9433      48.731617      2.3577398     -152860.19     -152765.61    
     10800   41.742349      13186.279      6724.9433      48.731617      2.3577398     -152863.48     -152764.69    
     10900   39.752119      20987.278      6724.9433      48.731617      2.3577398     -152859.78     -152765.69    
     11000   38.188404      30076.848      6724.9433      48.731617      2.3577398     -152857.55     -152767.16    
     11100   38.851687      23734.325      6724.9433      48.731617      2.3577398     -152857.15     -152765.2     
     11200   41.065793      16651.339      6724.9433      48.731617      2.3577398     -152857.75     -152760.55    
     11300   42.006101      30139.126      6724.9433      48.731617      2.3577398     -152855.18     -152755.76    
     11400   41.715338      6667.6698      6724.9433      48.731617      2.3577398     -152855.97     -152757.24    
     11500   40.344686      18769.199      6724.9433      48.731617      2.3577398     -152860.19     -152764.71    
     11600   38.437571      33434.943      6724.9433      48.731617      2.3577398     -152860.75     -152769.77    
     11700   39.293969      18528.33       6724.9433      48.731617      2.3577398     -152864.19     -152771.19    
     11800   37.676001      20136.078      6724.9433      48.731617      2.3577398     -152857.97     -152768.8     
     11900   42.060156      15266.288      6724.9433      48.731617      2.3577398     -152862.21     -152762.66    
     12000   42.474189      6928.0587      6724.9433      48.731617      2.3577398     -152858.15     -152757.62    
     12100   40.855591      23235.548      6724.9433      48.731617      2.3577398     -152856.23     -152759.53    
     12200   39.674036      12472.028      6724.9433      48.731617      2.3577398     -152860.27     -152766.37    
     12300   37.761476      34806.626      6724.9433      48.731617      2.3577398     -152860.74     -152771.36    
     12400   37.549988      4170.2975      6724.9433      48.731617      2.3577398     -152859.95     -152771.07    
     12500   40.349207      41304.064      6724.9433      48.731617      2.3577398     -152859.64     -152764.15    
     12600   42.225387      23577.99       6724.9433      48.731617      2.3577398     -152857.82     -152757.88    
     12700   42.941075      27301.824      6724.9433      48.731617      2.3577398     -152858.96     -152757.33    
     12800   39.464341      16846.8        6724.9433      48.731617      2.3577398     -152857.52     -152764.12    
     12900   38.030954      29921.259      6724.9433      48.731617      2.3577398     -152859.26     -152769.25    
     13000   40.003736      16821.462      6724.9433      48.731617      2.3577398     -152863.09     -152768.41    
     13100   40.401502      21672.103      6724.9433      48.731617      2.3577398     -152859.21     -152763.59    
     13200   41.362071      9839.2706      6724.9433      48.731617      2.3577398     -152857.34     -152759.44    
     13300   41.492095      27639.003      6724.9433      48.731617      2.3577398     -152859.68     -152761.48    
     13400   39.201517      19637.939      6724.9433      48.731617      2.3577398     -152860.18     -152767.4     
     13500   39.125297      21285.191      6724.9433      48.731617      2.3577398     -152862.64     -152770.04    
     13600   39.807864      23949.24       6724.9433      48.731617      2.3577398     -152860.68     -152766.46    
     13700   41.01787       10259.885      6724.9433      48.731617      2.3577398     -152858.09     -152761.01    
     13800   40.671236      41187.964      6724.9433      48.731617      2.3577398     -152854.12     -152757.87    
     13900   39.964916      7240.3003      6724.9433      48.731617      2.3577398     -152856.15     -152761.56    
     14000   39.775837      32657.983      6724.9433      48.731617      2.3577398     -152862.64     -152768.5     
     14100   39.431176      7918.0141      6724.9433      48.731617      2.3577398     -152865.75     -152772.42    
     14200   39.827187      49217.847      6724.9433      48.731617      2.3577398     -152864.98     -152770.72    
     14300   39.787627     -7885.4293      6724.9433      48.731617      2.3577398     -152857.35     -152763.18    
     14400   41.746665      27721.715      6724.9433      48.731617      2.3577398     -152854.46     -152755.66    
     14500   41.43391       20231.708      6724.9433      48.731617      2.3577398     -152854.56     -152756.49    
     14600   38.550568      36772.475      6724.9433      48.731617      2.3577398     -152853.98     -152762.74    
     14700   39.332462      3456.0479      6724.9433      48.731617      2.3577398     -152861.49     -152768.4     
     14800   39.175721      39863.58       6724.9433      48.731617      2.3577398     -152862.83     -152770.11    
     14900   39.737472      13011.704      6724.9433      48.731617      2.3577398     -152861.62     -152767.57    
     15000   41.034913      31717.509      6724.9433      48.731617      2.3577398     -152859.18     -152762.06    
     15100   41.720804      28477.211      6724.9433      48.731617      2.3577398     -152858.93     -152760.19    
     15200   39.920103      31481.071      6724.9433      48.731617      2.3577398     -152859.1      -152764.62    
     15300   38.830858      10542.243      6724.9433      48.731617      2.3577398     -152860.61     -152768.7     
     15400   39.215602      34914.167      6724.9433      48.731617      2.3577398     -152861.71     -152768.89    
     15500   39.771886      16861.007      6724.9433      48.731617      2.3577398     -152859.79     -152765.66    
     15600   40.597126      15323.994      6724.9433      48.731617      2.3577398     -152857.84     -152761.75    
     15700   40.193342      34922.065      6724.9433      48.731617      2.3577398     -152855.27     -152760.15    
     15800   42.127843      19601.293      6724.9433      48.731617      2.3577398     -152858.98     -152759.28    
     15900   41.678716      14368.797      6724.9433      48.731617      2.3577398     -152860.57     -152761.93    
     16000   40.608913      25487.843      6724.9433      48.731617      2.3577398     -152864.22     -152768.11    
     16100   38.099338      23015.506      6724.9433      48.731617      2.3577398     -152862.52     -152772.35    
     16200   40.559433      22987.889      6724.9433      48.731617      2.3577398     -152866.94     -152770.95    
     16300   39.776234      19364.786      6724.9433      48.731617      2.3577398     -152859.1      -152764.96    
     16400   41.873522      27391.414      6724.9433      48.731617      2.3577398     -152859.78     -152760.68    
     16500   40.088145      19530.946      6724.9433      48.731617      2.3577398     -152854.59     -152759.71    
     16600   40.59631       19592.223      6724.9433      48.731617      2.3577398     -152857.47     -152761.38    
     16700   38.23189       23290.997      6724.9433      48.731617      2.3577398     -152856.47     -152765.99    
     16800   39.936862      9362.0058      6724.9433      48.731617      2.3577398     -152863.84     -152769.32    
     16900   38.97506       27322.66       6724.9433      48.731617      2.3577398     -152862.52     -152770.27    
     17000   40.647004      15578.386      6724.9433      48.731617      2.3577398     -152864.46     -152768.26    
     17100   40.122953      25342.035      6724.9433      48.731617      2.3577398     -152859.14     -152764.17    
     17200   39.755609      17241.987      6724.9433      48.731617      2.3577398     -152855.34     -152761.25    
     17300   40.372605      22078.709      6724.9433      48.731617      2.3577398     -152855.94     -152760.39    
     17400   40.211414      14397.307      6724.9433      48.731617      2.3577398     -152857.95     -152762.78    
     17500   40.590911      16383.265      6724.9433      48.731617      2.3577398     -152863.75     -152767.68    
     17600   39.557473      27279.435      6724.9433      48.731617      2.3577398     -152864.55     -152770.93    
     17700   39.18512       26467.917      6724.9433      48.731617      2.3577398     -152862.81     -152770.06    
     17800   40.736907      33181.978      6724.9433      48.731617      2.3577398     -152863.47     -152767.06    
     17900   41.25212       22761.998      6724.9433      48.731617      2.3577398     -152861.09     -152763.46    
     18000   39.355624      26727.549      6724.9433      48.731617      2.3577398     -152857.12     -152763.97    
     18100   39.777987      23226.625      6724.9433      48.731617      2.3577398     -152861.9      -152767.75    
     18200   39.231625      35534.513      6724.9433      48.731617      2.3577398     -152862.86     -152770.01    
     18300   38.77927       1690.6539      6724.9433      48.731617      2.3577398     -152859.35     -152767.57    
     18400   39.606759      28463.351      6724.9433      48.731617      2.3577398     -152858.8      -152765.06    
     18500   40.901057      28022.687      6724.9433      48.731617      2.3577398     -152859.99     -152763.19    
     18600   41.547969      18747.671      6724.9433      48.731617      2.3577398     -152860.95     -152762.62    
     18700   40.088305      13672.349      6724.9433      48.731617      2.3577398     -152859.68     -152764.8     
     18800   39.818225      25285.898      6724.9433      48.731617      2.3577398     -152860.3      -152766.06    
     18900   39.506345      26374.874      6724.9433      48.731617      2.3577398     -152859.09     -152765.59    
     19000   39.731416      19498.754      6724.9433      48.731617      2.3577398     -152860.6      -152766.56    
     19100   39.991168      25177.371      6724.9433      48.731617      2.3577398     -152862.15     -152767.5     
     19200   38.414133      25485.525      6724.9433      48.731617      2.3577398     -152856.95     -152766.03    
     19300   40.193242      15630.219      6724.9433      48.731617      2.3577398     -152858.67     -152763.54    
     19400   40.69478       29288.396      6724.9433      48.731617      2.3577398     -152857.9      -152761.58    
     19500   37.721645      16463.117      6724.9433      48.731617      2.3577398     -152852.74     -152763.46    
     19600   38.975683      17815.483      6724.9433      48.731617      2.3577398     -152859.82     -152767.58    
     19700   39.73094       24654.212      6724.9433      48.731617      2.3577398     -152863.92     -152769.88    
     19800   38.608729      19480.198      6724.9433      48.731617      2.3577398     -152860.45     -152769.07    
     19900   40.66761       17268.561      6724.9433      48.731617      2.3577398     -152860.79     -152764.54    
     20000   40.357918      28605.679      6724.9433      48.731617      2.3577398     -152854.79     -152759.28    
     20100   40.472945      23566.521      6724.9433      48.731617      2.3577398     -152852.95     -152757.16    
     20200   39.490518      24354.726      6724.9433      48.731617      2.3577398     -152854.31     -152760.84    
     20300   40.474155      22985.058      6724.9433      48.731617      2.3577398     -152863.58     -152767.79    
     20400   38.717236      27253.45       6724.9433      48.731617      2.3577398     -152862.81     -152771.17    
     20500   38.759133      27199.591      6724.9433      48.731617      2.3577398     -152861.64     -152769.9     
     20600   40.49468       16129.411      6724.9433      48.731617      2.3577398     -152861.09     -152765.25    
     20700   40.432744      24887.194      6724.9433      48.731617      2.3577398     -152855.41     -152759.71    
     20800   40.674751      23497.505      6724.9433      48.731617      2.3577398     -152855.02     -152758.76    
     20900   41.1069        15007.024      6724.9433      48.731617      2.3577398     -152859.98     -152762.69    
     21000   38.603245      12298.539      6724.9433      48.731617      2.3577398     -152859.22     -152767.85    
     21100   39.46252       16449.561      6724.9433      48.731617      2.3577398     -152864.14     -152770.74    
     21200   56.174102      4207.6823      6724.9433      48.731617      2.3577398     -152916.92     -152783.97    
     21300   42.310138      9302.8508      6724.9433      48.731617      2.3577398     -152922.22     -152822.09    
     21400   40.699739      15340.029      6724.9433      48.731617      2.3577398     -152941.77     -152845.45    
     21500   38.823353      13797.216      6724.9433      48.731617      2.3577398     -152951.77     -152859.89    
     21600   37.689856      8573.855       6724.9433      48.731617      2.3577398     -152952.38     -152863.17    
     21700   38.622143      17029.667      6724.9433      48.731617      2.3577398     -152948.02     -152856.61    
     21800   41.237694      23581.057      6724.9433      48.731617      2.3577398     -152944.86     -152847.26    
     21900   41.997496      21193.964      6724.9433      48.731617      2.3577398     -152943.8      -152844.4     
     22000   39.783866      8937.39        6724.9433      48.731617      2.3577398     -152942.19     -152848.03    
     22100   38.98353       9618.5861      6724.9433      48.731617      2.3577398     -152940.52     -152848.26    
     22200   38.983889      20153.993      6724.9433      48.731617      2.3577398     -152943.26     -152851       
     22300   40.342448      12270.444      6724.9433      48.731617      2.3577398     -152950.5      -152855.02    
     22400   39.518576      12673.591      6724.9433      48.731617      2.3577398     -152951.9      -152858.37    
     22500   39.154369      24357.147      6724.9433      48.731617      2.3577398     -152952.1      -152859.43    
     22600   40.406018      4539.0604      6724.9433      48.731617      2.3577398     -152953.2      -152857.57    
     22700   41.29176       15029.625      6724.9433      48.731617      2.3577398     -152946.59     -152848.86    
     22800   42.090786      19889.879      6724.9433      48.731617      2.3577398     -152944.25     -152844.63    
     22900   42.58288       10560.748      6724.9433      48.731617      2.3577398     -152943.13     -152842.34    
     23000   39.506613      2691.3102      6724.9433      48.731617      2.3577398     -152945.05     -152851.54    
     23100   39.407086      14821.519      6724.9433      48.731617      2.3577398     -152948.09     -152854.82    
     23200   39.942578      11705.023      6724.9433      48.731617      2.3577398     -152953.51     -152858.97    
     23300   37.5425        10962.919      6724.9433      48.731617      2.3577398     -152944.98     -152856.13    
     23400   38.954511      28282.933      6724.9433      48.731617      2.3577398     -152943.09     -152850.9     
     23500   40.392258     -939.67412      6724.9433      48.731617      2.3577398     -152942.69     -152847.09    
     23600   40.250939      38723.765      6724.9433      48.731617      2.3577398     -152943.36     -152848.1     
     23700   40.290756     -9192.5572      6724.9433      48.731617      2.3577398     -152947.57     -152852.21    
     23800   40.246513      31674.554      6724.9433      48.731617      2.3577398     -152951.45     -152856.19    
     23900   40.191236      806.03771      6724.9433      48.731617      2.3577398     -152951.74     -152856.62    
     24000   39.913422      23141.119      6724.9433      48.731617      2.3577398     -152951.25     -152856.78    
     24100   38.013172     -936.28541      6724.9433      48.731617      2.3577398     -152947.25     -152857.29    
     24200   38.568264      35032.811      6724.9433      48.731617      2.3577398     -152945.58     -152854.29    
     24300   40.400247     -3834.0647      6724.9433      48.731617      2.3577398     -152944.17     -152848.56    
     24400   40.545359      42526.573      6724.9433      48.731617      2.3577398     -152945.88     -152849.92    
     24500   38.849803     -5296.0207      6724.9433      48.731617      2.3577398     -152946.14     -152854.19    
     24600   41.105931      24856.394      6724.9433      48.731617      2.3577398     -152954.51     -152857.22    
     24700   38.90207       4315.636       6724.9433      48.731617      2.3577398     -152950.66     -152858.59    
     24800   41.453401      23108.154      6724.9433      48.731617      2.3577398     -152949.58     -152851.47    
     24900   39.313209      9851.9412      6724.9433      48.731617      2.3577398     -152942.52     -152849.48    
     25000   40.060974      26233.94       6724.9433      48.731617      2.3577398     -152947.07     -152852.26    
     25100   39.498468      22213.032      6724.9433      48.731617      2.3577398     -152948.99     -152855.51    
     25200   40.652798      6308.7753      6724.9433      48.731617      2.3577398     -152948.57     -152852.35    
     25300   40.91745       19806.792      6724.9433      48.731617      2.3577398     -152942.77     -152845.93    
     25400   41.642867      17768.473      6724.9433      48.731617      2.3577398     -152946.02     -152847.47    
     25500   39.774427      17133.603      6724.9433      48.731617      2.3577398     -152948.03     -152853.9     
     25600   37.307896      10703.061      6724.9433      48.731617      2.3577398     -152945.5      -152857.2     
     25700   42.162809      22566.151      6724.9433      48.731617      2.3577398     -152955.45     -152855.66    
     25800   39.060001      4884.1571      6724.9433      48.731617      2.3577398     -152945.71     -152853.26    
     25900   40.957272      22838.548      6724.9433      48.731617      2.3577398     -152944.19     -152847.25    
     26000   41.743453      24164.683      6724.9433      48.731617      2.3577398     -152943.42     -152844.63    
     26100   41.070427      25964.997      6724.9433      48.731617      2.3577398     -152944.18     -152846.98    
     26200   40.945833      19278.723      6724.9433      48.731617      2.3577398     -152946.15     -152849.25    
     26300   40.860949      4459.3766      6724.9433      48.731617      2.3577398     -152947.3      -152850.59    
     26400   42.389411      36368.29       6724.9433      48.731617      2.3577398     -152954.4      -152854.08    
     26500   39.310054      15247.897      6724.9433      48.731617      2.3577398     -152952.02     -152858.99    
     26600   37.960228      14551.652      6724.9433      48.731617      2.3577398     -152948.24     -152858.4     
     26700   38.518104      11657.957      6724.9433      48.731617      2.3577398     -152946.7      -152855.53    
     26800   39.723471      33834.353      6724.9433      48.731617      2.3577398     -152945.15     -152851.13    
     26900   38.26653       18444.537      6724.9433      48.731617      2.3577398     -152941.04     -152850.47    
     27000   40.648845      24938.64       6724.9433      48.731617      2.3577398     -152945.8      -152849.59    
     27100   40.757252      21693.46       6724.9433      48.731617      2.3577398     -152946.04     -152849.58    
     27200   39.462034      7565.1958      6724.9433      48.731617      2.3577398     -152949.44     -152856.04    
     27300   39.625782      15950.969      6724.9433      48.731617      2.3577398     -152953.29     -152859.51    
     27400   39.438758      11343.413      6724.9433      48.731617      2.3577398     -152951.17     -152857.83    
     27500   41.550458      33764.622      6724.9433      48.731617      2.3577398     -152951.47     -152853.13    
     27600   40.31895      -2058.6764      6724.9433      48.731617      2.3577398     -152945.83     -152850.4     
     27700   42.322204      28121.775      6724.9433      48.731617      2.3577398     -152943.18     -152843.02    
     27800   40.929967     -3191.4367      6724.9433      48.731617      2.3577398     -152940.48     -152843.61    
     27900   40.167617      28718.123      6724.9433      48.731617      2.3577398     -152941.65     -152846.58    
     28000   39.672547      1466.6626      6724.9433      48.731617      2.3577398     -152946.28     -152852.39    
     28100   39.42752       36880.167      6724.9433      48.731617      2.3577398     -152949.62     -152856.3     
     28200   40.710867     -299.72511      6724.9433      48.731617      2.3577398     -152955.02     -152858.67    
     28300   38.550174      27844.598      6724.9433      48.731617      2.3577398     -152950.9      -152859.67    
     28400   40.193643      11223.94       6724.9433      48.731617      2.3577398     -152947.59     -152852.46    
     28500   42.623432      23073.395      6724.9433      48.731617      2.3577398     -152949.77     -152848.89    
     28600   40.967772      3916.3672      6724.9433      48.731617      2.3577398     -152948.46     -152851.5     
     28700   40.175408      33635.548      6724.9433      48.731617      2.3577398     -152951.89     -152856.8     
     28800   40.729166      22976.312      6724.9433      48.731617      2.3577398     -152952.77     -152856.37    
     28900   40.883165      14282.024      6724.9433      48.731617      2.3577398     -152950.64     -152853.88    
     29000   41.705202      31235.167      6724.9433      48.731617      2.3577398     -152946.06     -152847.35    
     29100   42.193554      8855.5873      6724.9433      48.731617      2.3577398     -152945.77     -152845.91    
     29200   39.935079      40731.681      6724.9433      48.731617      2.3577398     -152942.93     -152848.41    
     29300   39.386971      23256.581      6724.9433      48.731617      2.3577398     -152943.36     -152850.14    
     29400   39.701706      25251.724      6724.9433      48.731617      2.3577398     -152948.45     -152854.48    
     29500   40.347264      11360.614      6724.9433      48.731617      2.3577398     -152954.1      -152858.61    
     29600   38.615763      23381.378      6724.9433      48.731617      2.3577398     -152951.49     -152860.09    
     29700   40.12899      -195.4369       6724.9433      48.731617      2.3577398     -152953.7      -152858.72    
     29800   38.005203      21875.02       6724.9433      48.731617      2.3577398     -152946.62     -152856.67    
     29900   40.743859      22936.213      6724.9433      48.731617      2.3577398     -152949.39     -152852.96    
     30000   40.036972      1036.6695      6724.9433      48.731617      2.3577398     -152946.88     -152852.12    
     30100   38.662379      32586.717      6724.9433      48.731617      2.3577398     -152942.59     -152851.09    
     30200   42.508059      15730.067      6724.9433      48.731617      2.3577398     -152944.64     -152844.03    
     30300   42.741609      22572.161      6724.9433      48.731617      2.3577398     -152945.48     -152844.32    
     30400   41.695447      13659.911      6724.9433      48.731617      2.3577398     -152947.45     -152848.76    
     30500   40.310285      40037.79       6724.9433      48.731617      2.3577398     -152948.89     -152853.48    
     30600   40.201764      9258.5204      6724.9433      48.731617      2.3577398     -152952.42     -152857.27    
     30700   39.52952       14126.788      6724.9433      48.731617      2.3577398     -152950.31     -152856.76    
     30800   41.026958      9191.3002      6724.9433      48.731617      2.3577398     -152947.32     -152850.22    
     30900   40.749109      12403.032      6724.9433      48.731617      2.3577398     -152945.31     -152848.86    
     31000   39.981049      11830.054      6724.9433      48.731617      2.3577398     -152943.66     -152849.03    
     31100   40.662455      12883.26       6724.9433      48.731617      2.3577398     -152945.29     -152849.05    
     31200   39.62968       16341.141      6724.9433      48.731617      2.3577398     -152949.45     -152855.66    
     31300   39.016676      12483.88       6724.9433      48.731617      2.3577398     -152951.52     -152859.18    
     31400   39.119698      16214.742      6724.9433      48.731617      2.3577398     -152950.14     -152857.56    
     31500   40.022421      10473.232      6724.9433      48.731617      2.3577398     -152947.31     -152852.58    
     31600   41.336885      29937.936      6724.9433      48.731617      2.3577398     -152948.09     -152850.25    
     31700   39.705947      3590.3381      6724.9433      48.731617      2.3577398     -152945.44     -152851.47    
     31800   40.684126      28034.403      6724.9433      48.731617      2.3577398     -152950.93     -152854.64    
     31900   39.007594      9967.8424      6724.9433      48.731617      2.3577398     -152947.72     -152855.39    
     32000   39.85619       26893.788      6724.9433      48.731617      2.3577398     -152947        -152852.67    
     32100   40.003798      5655.011       6724.9433      48.731617      2.3577398     -152947.81     -152853.13    
     32200   40.30496       25059.275      6724.9433      48.731617      2.3577398     -152948.42     -152853.03    
     32300   40.768742      948.76667      6724.9433      48.731617      2.3577398     -152947.04     -152850.55    
     32400   41.663451      35390.015      6724.9433      48.731617      2.3577398     -152946.43     -152847.82    
     32500   42.092603      9716.6105      6724.9433      48.731617      2.3577398     -152948.31     -152848.69    
     32600   39.098214      33838.291      6724.9433      48.731617      2.3577398     -152948.71     -152856.17    
     32700   39.133985      7896.1898      6724.9433      48.731617      2.3577398     -152950.39     -152857.77    
     32800   38.337587      25070.606      6724.9433      48.731617      2.3577398     -152946.85     -152856.12    
     32900   40.197377      9445.0498      6724.9433      48.731617      2.3577398     -152944.94     -152849.8     
     33000   39.764726      12229.999      6724.9433      48.731617      2.3577398     -152942.12     -152848       
     33100   41.318777      5137.0157      6724.9433      48.731617      2.3577398     -152947.07     -152849.27    
     33200   39.758901      11206.614      6724.9433      48.731617      2.3577398     -152948.32     -152854.22    
     33300   39.032943      15938.492      6724.9433      48.731617      2.3577398     -152947.98     -152855.6     
     33400   40.450199      19179.479      6724.9433      48.731617      2.3577398     -152951.96     -152856.23    
     33500   39.622488      18494.649      6724.9433      48.731617      2.3577398     -152949.63     -152855.85    
     33600   42.856263      24194.607      6724.9433      48.731617      2.3577398     -152951.03     -152849.6     
     33700   40.890711      25499.693      6724.9433      48.731617      2.3577398     -152943.85     -152847.07    
     33800   41.305502      2250.8208      6724.9433      48.731617      2.3577398     -152948.94     -152851.18    
     33900   40.016769      33438.73       6724.9433      48.731617      2.3577398     -152949.56     -152854.85    
     34000   40.591753      8201.2403      6724.9433      48.731617      2.3577398     -152951.23     -152855.15    
     34100   39.687915      9157.3698      6724.9433      48.731617      2.3577398     -152944.84     -152850.91    
     34200   42.575393      8056.2759      6724.9433      48.731617      2.3577398     -152948.65     -152847.89    
     34300   42.821518      22937.078      6724.9433      48.731617      2.3577398     -152950.92     -152849.57    
     34400   39.112617      6315.5979      6724.9433      48.731617      2.3577398     -152946.18     -152853.61    
     34500   39.899473      22686          6724.9433      48.731617      2.3577398     -152948.63     -152854.2     
     34600   40.660847      8972.9046      6724.9433      48.731617      2.3577398     -152951.15     -152854.92    
     34700   39.521975      6209.9256      6724.9433      48.731617      2.3577398     -152951.65     -152858.11    
     34800   38.249226      14845.666      6724.9433      48.731617      2.3577398     -152952.18     -152861.65    
     34900   37.537201      26401.336      6724.9433      48.731617      2.3577398     -152947.26     -152858.42    
     35000   40.600205      22793.347      6724.9433      48.731617      2.3577398     -152947.59     -152851.5     
     35100   41.508554      22008.159      6724.9433      48.731617      2.3577398     -152948.11     -152849.87    
     35200   41.602574      24707.592      6724.9433      48.731617      2.3577398     -152948.18     -152849.72    
     35300   38.337921      2044.2908      6724.9433      48.731617      2.3577398     -152945.49     -152854.76    
     35400   40.663367      11010.612      6724.9433      48.731617      2.3577398     -152954.41     -152858.17    
     35500   39.844361      10791.896      6724.9433      48.731617      2.3577398     -152952.7      -152858.39    
     35600   40.489573      17919.595      6724.9433      48.731617      2.3577398     -152950.8      -152854.97    
     35700   41.417379      8003.9185      6724.9433      48.731617      2.3577398     -152946.81     -152848.78    
     35800   41.408615      6963.1781      6724.9433      48.731617      2.3577398     -152939.25     -152841.24    
     35900   45.325416      14686.45       6724.9433      48.731617      2.3577398     -152942.23     -152834.96    
     36000   41.755703      7765.8812      6724.9433      48.731617      2.3577398     -152939.93     -152841.11    
     36100   40.718368      8145.8728      6724.9433      48.731617      2.3577398     -152943.37     -152847       
     36200   41.268792      21878.457      6724.9433      48.731617      2.3577398     -152951.44     -152853.76    
     36300   40.302794      6520.3659      6724.9433      48.731617      2.3577398     -152952.27     -152856.89    
     36400   39.081787      24433.096      6724.9433      48.731617      2.3577398     -152950.29     -152857.79    
     36500   40.065628      11689.444      6724.9433      48.731617      2.3577398     -152950.35     -152855.53    
     36600   40.301004      15894.393      6724.9433      48.731617      2.3577398     -152944.75     -152849.37    
     36700   40.128093      20018.556      6724.9433      48.731617      2.3577398     -152944.76     -152849.79    
     36800   40.856019      7138.0731      6724.9433      48.731617      2.3577398     -152949.41     -152852.71    
     36900   40.845665      4456.761       6724.9433      48.731617      2.3577398     -152951.8      -152855.13    
     37000   40.271342      23027.762      6724.9433      48.731617      2.3577398     -152949.59     -152854.28    
     37100   39.033881      16734.501      6724.9433      48.731617      2.3577398     -152945.82     -152853.44    
     37200   38.379215      12608.722      6724.9433      48.731617      2.3577398     -152943.5      -152852.67    
     37300   40.410309      9693.7548      6724.9433      48.731617      2.3577398     -152949.3      -152853.65    
     37400   38.273891      14044.59       6724.9433      48.731617      2.3577398     -152948.86     -152858.28    
     37500   36.890301      3994.4102      6724.9433      48.731617      2.3577398     -152948.32     -152861.01    
     37600   38.798034      24958.6        6724.9433      48.731617      2.3577398     -152949.56     -152857.73    
     37700   40.79992       18965.227      6724.9433      48.731617      2.3577398     -152948.66     -152852.1     
     37800   41.16254       12372.188      6724.9433      48.731617      2.3577398     -152949.3      -152851.88    
     37900   40.885142      19901.305      6724.9433      48.731617      2.3577398     -152949.64     -152852.87    
     38000   37.943798      8693.3186      6724.9433      48.731617      2.3577398     -152945.43     -152855.63    
     38100   38.622524      14651.593      6724.9433      48.731617      2.3577398     -152952.12     -152860.71    
     38200   38.548826     -570.89482      6724.9433      48.731617      2.3577398     -152953.5      -152862.26    
     38300   39.206667      21085.599      6724.9433      48.731617      2.3577398     -152948.98     -152856.18    
     38400   40.786981      4073.9928      6724.9433      48.731617      2.3577398     -152948.02     -152851.48    
     38500   40.816469      30272.119      6724.9433      48.731617      2.3577398     -152949.96     -152853.35    
     38600   39.979898      21166.522      6724.9433      48.731617      2.3577398     -152952.24     -152857.62    
     38700   40.117151      19411.538      6724.9433      48.731617      2.3577398     -152952.91     -152857.96    
     38800   39.728448      11219.458      6724.9433      48.731617      2.3577398     -152946.85     -152852.83    
     38900   40.863366      30023.32       6724.9433      48.731617      2.3577398     -152943.4      -152846.69    
     39000   41.277828      2460.9124      6724.9433      48.731617      2.3577398     -152946.57     -152848.88    
     39100   40.471979      15887.31       6724.9433      48.731617      2.3577398     -152949.62     -152853.84    
     39200   39.318718     -486.98482      6724.9433      48.731617      2.3577398     -152950.7      -152857.64    
     39300   38.536217      8444.6932      6724.9433      48.731617      2.3577398     -152948.45     -152857.24    
     39400   39.651573      15791.766      6724.9433      48.731617      2.3577398     -152949.85     -152856.01    
     39500   40.121717      18090.68       6724.9433      48.731617      2.3577398     -152944.03     -152849.07    
     39600   42.019988      27792.5        6724.9433      48.731617      2.3577398     -152943.65     -152844.2     
     39700   40.302785      1966.0482      6724.9433      48.731617      2.3577398     -152944.93     -152849.54    
     39800   37.995528      27817.428      6724.9433      48.731617      2.3577398     -152945.19     -152855.26    
     39900   38.473755      14531.636      6724.9433      48.731617      2.3577398     -152947.16     -152856.1     
     40000   39.209334      14618.085      6724.9433      48.731617      2.3577398     -152945.13     -152852.33    
     40100   40.409959      23518.272      6724.9433      48.731617      2.3577398     -152943.55     -152847.91    
     40200   40.253934      13729.794      6724.9433      48.731617      2.3577398     -152940.78     -152845.51    
     40300   38.544587     -8812.4516      6724.9433      48.731617      2.3577398     -152946.2      -152854.97    
     40400   38.806137      22388.822      6724.9433      48.731617      2.3577398     -152949.21     -152857.37    
     40500   39.512398      8470.4884      6724.9433      48.731617      2.3577398     -152948.18     -152854.66    
     40600   39.749457      5468.8983      6724.9433      48.731617      2.3577398     -152945.46     -152851.38    
     40700   41.687323      6001.5692      6724.9433      48.731617      2.3577398     -152948.26     -152849.59    
     40800   38.189219      23445.055      6724.9433      48.731617      2.3577398     -152943.56     -152853.17    
     40900   38.871148      6580.6308      6724.9433      48.731617      2.3577398     -152949.54     -152857.54    
     41000   38.623619      15031.805      6724.9433      48.731617      2.3577398     -152952.02     -152860.61    
     41100   41.492368      20666.892      6724.9433      48.731617      2.3577398     -152952.3      -152854.1     
     41200   41.363974      20610.162      6724.9433      48.731617      2.3577398     -152948.43     -152850.53    
     41300   39.198341      19470.139      6724.9433      48.731617      2.3577398     -152944.34     -152851.57    
     41400   40.060122     -1018.1765      6724.9433      48.731617      2.3577398     -152948.92     -152854.11    
     41500   39.143255      15984.875      6724.9433      48.731617      2.3577398     -152952.62     -152859.97    
     41600   39.270794      14796.445      6724.9433      48.731617      2.3577398     -152954.47     -152861.52    
     41700   38.657819      11828.305      6724.9433      48.731617      2.3577398     -152945.56     -152854.07    
     41800   42.344927      12720.709      6724.9433      48.731617      2.3577398     -152950.17     -152849.95    
     41900   41.900495      21807.4        6724.9433      48.731617      2.3577398     -152951.22     -152852.05    
     42000   38.397649      27837.127      6724.9433      48.731617      2.3577398     -152946.39     -152855.51    
     42100   39.091006      9522.8047      6724.9433      48.731617      2.3577398     -152947.18     -152854.66    
     42200   42.503241      26702.253      6724.9433      48.731617      2.3577398     -152948.89     -152848.29    
     42300   42.313483      7828.0527      6724.9433      48.731617      2.3577398     -152947.17     -152847.03    
     42400   40.604169      27502.667      6724.9433      48.731617      2.3577398     -152949.3      -152853.2     
     42500   40.544645      6742.6088      6724.9433      48.731617      2.3577398     -152949.66     -152853.7     
     42600   38.711137      27489.507      6724.9433      48.731617      2.3577398     -152945.81     -152854.19    
     42700   41.823999      3599.7312      6724.9433      48.731617      2.3577398     -152953.03     -152854.04    
     42800   40.572927      19867.784      6724.9433      48.731617      2.3577398     -152950.78     -152854.76    
     42900   37.985704      19381.207      6724.9433      48.731617      2.3577398     -152948.17     -152858.26    
     43000   38.599771      395.55179      6724.9433      48.731617      2.3577398     -152951.7      -152860.35    
     43100   40.728861      11087.764      6724.9433      48.731617      2.3577398     -152950.97     -152854.58    
     43200   41.611841      24880.293      6724.9433      48.731617      2.3577398     -152948.55     -152850.06    
     43300   41.093692      19073.664      6724.9433      48.731617      2.3577398     -152948.51     -152851.25    
     43400   39.519003      16028.071      6724.9433      48.731617      2.3577398     -152948.92     -152855.39    
     43500   38.695255      24139.173      6724.9433      48.731617      2.3577398     -152950.59     -152859.01    
     43600   38.818722      25842.914      6724.9433      48.731617      2.3577398     -152949.71     -152857.83    
     43700   41.231679     -4092.032       6724.9433      48.731617      2.3577398     -152947.01     -152849.43    
     43800   41.483114      33419.992      6724.9433      48.731617      2.3577398     -152948.49     -152850.31    
     43900   39.753871      9526.304       6724.9433      48.731617      2.3577398     -152949.55     -152855.46    
     44000   38.607008      39766.701      6724.9433      48.731617      2.3577398     -152948.41     -152857.04    
     44100   40.827511      3295.0372      6724.9433      48.731617      2.3577398     -152949.32     -152852.7     
     44200   41.849128      28474.102      6724.9433      48.731617      2.3577398     -152948.3      -152849.26    
     44300   40.721108     -3386.5685      6724.9433      48.731617      2.3577398     -152946.95     -152850.57    
     44400   39.701408      28115.42       6724.9433      48.731617      2.3577398     -152947.27     -152853.3     
     44500   38.2748        11381.304      6724.9433      48.731617      2.3577398     -152946.18     -152855.59    
     44600   39.541509      16243.702      6724.9433      48.731617      2.3577398     -152949.21     -152855.63    
     44700   42.032213      7466.131       6724.9433      48.731617      2.3577398     -152948.5      -152849.02    
     44800   42.081212      22193.253      6724.9433      48.731617      2.3577398     -152947.08     -152847.48    
     44900   40.210381      8347.9423      6724.9433      48.731617      2.3577398     -152947.11     -152851.94    
     45000   41.266811      25109.29       6724.9433      48.731617      2.3577398     -152953.29     -152855.62    
     45100   39.63719       16801.83       6724.9433      48.731617      2.3577398     -152949.04     -152855.23    
     45200   39.500247      10971.174      6724.9433      48.731617      2.3577398     -152947.4      -152853.91    
     45300   39.624521      14859.369      6724.9433      48.731617      2.3577398     -152945.17     -152851.38    
     45400   41.449621      22375.005      6724.9433      48.731617      2.3577398     -152944.75     -152846.65    
     45500   43.883722      10502.782      6724.9433      48.731617      2.3577398     -152947.25     -152843.38    
     45600   40.222102      14018.851      6724.9433      48.731617      2.3577398     -152945.25     -152850.06    
     45700   39.78934       28286.022      6724.9433      48.731617      2.3577398     -152948.7      -152854.52    
     45800   39.144396      18217.753      6724.9433      48.731617      2.3577398     -152948.46     -152855.81    
     45900   39.878292      10752.239      6724.9433      48.731617      2.3577398     -152948.28     -152853.9     
     46000   40.245066      15064.268      6724.9433      48.731617      2.3577398     -152943.22     -152847.97    
     46100   39.551396      16190.097      6724.9433      48.731617      2.3577398     -152938.22     -152844.61    
     46200   41.320275      11939.146      6724.9433      48.731617      2.3577398     -152945.88     -152848.08    
     46300   40.714022      25874.233      6724.9433      48.731617      2.3577398     -152948.47     -152852.11    
     46400   40.650697      11911.399      6724.9433      48.731617      2.3577398     -152949.55     -152853.34    
     46500   39.330723      11532.268      6724.9433      48.731617      2.3577398     -152948.51     -152855.42    
     46600   39.487363      17884.984      6724.9433      48.731617      2.3577398     -152948.95     -152855.49    
     46700   40.858388      4001.4141      6724.9433      48.731617      2.3577398     -152949.22     -152852.52    
     46800   42.541452      3662.099       6724.9433      48.731617      2.3577398     -152948.45     -152847.77    
     46900   40.079414      16937.081      6724.9433      48.731617      2.3577398     -152945.26     -152850.4     
     47000   39.860733      3001.2149      6724.9433      48.731617      2.3577398     -152949.98     -152855.64    
     47100   40.616076      20583.769      6724.9433      48.731617      2.3577398     -152952.44     -152856.31    
     47200   39.401155      19116.66       6724.9433      48.731617      2.3577398     -152948.44     -152855.18    
     47300   40.294155      20848.765      6724.9433      48.731617      2.3577398     -152946.22     -152850.85    
     47400   38.699105      9105.9321      6724.9433      48.731617      2.3577398     -152942.5      -152850.91    
     47500   41.386451      12162.034      6724.9433      48.731617      2.3577398     -152952.79     -152854.84    
     47600   38.629764      10631.986      6724.9433      48.731617      2.3577398     -152949.27     -152857.84    
     47700   38.685556     -6362.4328      6724.9433      48.731617      2.3577398     -152948.06     -152856.5     
     47800   40.669918      32475.474      6724.9433      48.731617      2.3577398     -152948.4      -152852.15    
     47900   41.116003      10632.569      6724.9433      48.731617      2.3577398     -152946.66     -152849.35    
     48000   41.340558      24896.072      6724.9433      48.731617      2.3577398     -152948.8      -152850.96    
     48100   39.215197      12723.713      6724.9433      48.731617      2.3577398     -152950.1      -152857.28    
     48200   39.342199      32598.341      6724.9433      48.731617      2.3577398     -152950.24     -152857.13    
     48300   39.237466      7297.7319      6724.9433      48.731617      2.3577398     -152948.81     -152855.95    
     48400   37.811865      25614.732      6724.9433      48.731617      2.3577398     -152944.3      -152854.81    
     48500   39.253647      8440.8416      6724.9433      48.731617      2.3577398     -152945.97     -152853.06    
     48600   40.381489      16677.801      6724.9433      48.731617      2.3577398     -152952.04     -152856.46    
     48700   37.792304      9433.7353      6724.9433      48.731617      2.3577398     -152951.17     -152861.72    
     48800   39.455385      14639.263      6724.9433      48.731617      2.3577398     -152951.93     -152858.55    
     48900   40.908074      11811.764      6724.9433      48.731617      2.3577398     -152950.38     -152853.56    
     49000   40.912738      14878.601      6724.9433      48.731617      2.3577398     -152947.68     -152850.85    
     49100   42.481127      23976.034      6724.9433      48.731617      2.3577398     -152950.9      -152850.36    
     49200   38.662095      21265.949      6724.9433      48.731617      2.3577398     -152948.81     -152857.3     
     49300   37.738567      15681.646      6724.9433      48.731617      2.3577398     -152948.32     -152859       
     49400   39.086711      23140.798      6724.9433      48.731617      2.3577398     -152948.47     -152855.96    
     49500   40.366364      5926.8374      6724.9433      48.731617      2.3577398     -152947.68     -152852.14    
     49600   41.355552      31615.326      6724.9433      48.731617      2.3577398     -152948.76     -152850.88    
     49700   40.006025      698.20076      6724.9433      48.731617      2.3577398     -152950.91     -152856.23    
     49800   38.43124       17730.377      6724.9433      48.731617      2.3577398     -152950.69     -152859.73    
     49900   38.972162     -6797.8491      6724.9433      48.731617      2.3577398     -152948.61     -152856.37    
     50000   40.890906      20451.491      6724.9433      48.731617      2.3577398     -152948.83     -152852.05    
     50100   41.126887      20864.128      6724.9433      48.731617      2.3577398     -152948.78     -152851.44    
     50200   39.26158       9493.2098      6724.9433      48.731617      2.3577398     -152948.83     -152855.91    
     50300   39.427246      21170.937      6724.9433      48.731617      2.3577398     -152952.13     -152858.81    
     50400   38.76512       31147.115      6724.9433      48.731617      2.3577398     -152949.96     -152858.21    
     50500   41.848407      20025.069      6724.9433      48.731617      2.3577398     -152951.2      -152852.15    
     50600   41.141066      12393.851      6724.9433      48.731617      2.3577398     -152947.97     -152850.59    
     50700   39.981944      27890.231      6724.9433      48.731617      2.3577398     -152948.57     -152853.95    
     50800   39.335654      12455.294      6724.9433      48.731617      2.3577398     -152951.27     -152858.17    
     50900   39.816524      18392.065      6724.9433      48.731617      2.3577398     -152952.41     -152858.18    
     51000   41.045346      15677.49       6724.9433      48.731617      2.3577398     -152946.93     -152849.79    
     51100   40.250191      5628.4218      6724.9433      48.731617      2.3577398     -152943.82     -152848.56    
     51200   41.376728      12991.021      6724.9433      48.731617      2.3577398     -152949.11     -152851.18    
     51300   39.326073      4812.02        6724.9433      48.731617      2.3577398     -152949.25     -152856.18    
     51400   40.1697        15398.957      6724.9433      48.731617      2.3577398     -152953.68     -152858.6     
     51500   39.063584      12939.538      6724.9433      48.731617      2.3577398     -152950.66     -152858.2     
     51600   40.611019      17749.557      6724.9433      48.731617      2.3577398     -152945.81     -152849.69    
     51700   39.623717      6071.1564      6724.9433      48.731617      2.3577398     -152943.43     -152849.65    
     51800   40.079215      19374.683      6724.9433      48.731617      2.3577398     -152947.43     -152852.58    
     51900   39.173251      10814.668      6724.9433      48.731617      2.3577398     -152947.84     -152855.12    
     52000   38.211452      4081.3193      6724.9433      48.731617      2.3577398     -152946.1      -152855.67    
     52100   42.353634      9909.2563      6724.9433      48.731617      2.3577398     -152947.28     -152847.03    
     52200   40.524398      21491.729      6724.9433      48.731617      2.3577398     -152943.31     -152847.4     
     52300   41.486616      11452.337      6724.9433      48.731617      2.3577398     -152949.97     -152851.78    
     52400   39.763221      12021.609      6724.9433      48.731617      2.3577398     -152949.63     -152855.52    
     52500   40.664453      28151.709      6724.9433      48.731617      2.3577398     -152952.79     -152856.55    
     52600   40.222209      13842.749      6724.9433      48.731617      2.3577398     -152952.07     -152856.88    
     52700   40.389389      18809.686      6724.9433      48.731617      2.3577398     -152950.14     -152854.55    
     52800   41.226257      29025.428      6724.9433      48.731617      2.3577398     -152948.61     -152851.03    
     52900   38.832657      9554.0767      6724.9433      48.731617      2.3577398     -152943.17     -152851.26    
     53000   41.838366      14847.854      6724.9433      48.731617      2.3577398     -152948.04     -152849.02    
     53100   40.907615      22654.366      6724.9433      48.731617      2.3577398     -152947.93     -152851.11    
     53200   39.086306      2940.2357      6724.9433      48.731617      2.3577398     -152949.22     -152856.72    
     53300   39.064687      10150.314      6724.9433      48.731617      2.3577398     -152951.73     -152859.27    
     53400   38.844669      13657.288      6724.9433      48.731617      2.3577398     -152949.33     -152857.39    
     53500   40.897397      14102.591      6724.9433      48.731617      2.3577398     -152947.16     -152850.36    
     53600   40.812227     -6027.6707      6724.9433      48.731617      2.3577398     -152947.65     -152851.05    
     53700   40.172332      36455.678      6724.9433      48.731617      2.3577398     -152950.32     -152855.24    
     53800   37.714364      4524.3496      6724.9433      48.731617      2.3577398     -152948.35     -152859.09    
     53900   40.22575       25945.645      6724.9433      48.731617      2.3577398     -152951.65     -152856.45    
     54000   39.565008      7010.9107      6724.9433      48.731617      2.3577398     -152945.39     -152851.75    
     54100   41.051316      33950.565      6724.9433      48.731617      2.3577398     -152946.82     -152849.66    
     54200   40.972843     -11287.538      6724.9433      48.731617      2.3577398     -152948.45     -152851.48    
     54300   38.348968      38999.199      6724.9433      48.731617      2.3577398     -152946.55     -152855.78    
     54400   39.60816       92.554801      6724.9433      48.731617      2.3577398     -152949.91     -152856.17    
     54500   39.699617      15277.651      6724.9433      48.731617      2.3577398     -152948.72     -152854.76    
     54600   40.356825      3325.2262      6724.9433      48.731617      2.3577398     -152942.99     -152847.47    
     54700   39.760087      15587.127      6724.9433      48.731617      2.3577398     -152940.26     -152846.16    
     54800   40.979965      4972.5262      6724.9433      48.731617      2.3577398     -152946.12     -152849.13    
     54900   41.025603      22152.234      6724.9433      48.731617      2.3577398     -152948.61     -152851.52    
     55000   41.017941      953.56951      6724.9433      48.731617      2.3577398     -152948.69     -152851.61    
     55100   40.476177      13910.007      6724.9433      48.731617      2.3577398     -152949.56     -152853.76    
     55200   43.533534      21426.039      6724.9433      48.731617      2.3577398     -152942.4      -152839.36    
     55300   40.771572      13306.738      6724.9433      48.731617      2.3577398     -152943.96     -152847.47    
     55400   39.315354      14259.031      6724.9433      48.731617      2.3577398     -152943.75     -152850.7     
     55500   38.287201      12275.694      6724.9433      48.731617      2.3577398     -152943.1      -152852.49    
     55600   38.400137      19548.542      6724.9433      48.731617      2.3577398     -152945.48     -152854.6     
     55700   38.68046      -4459.8834      6724.9433      48.731617      2.3577398     -152950.31     -152858.77    
     55800   38.963158      32874.749      6724.9433      48.731617      2.3577398     -152951.75     -152859.53    
     55900   39.010385      7135.4167      6724.9433      48.731617      2.3577398     -152947.56     -152855.23    
     56000   38.704528      40165.397      6724.9433      48.731617      2.3577398     -152940.54     -152848.94    
     56100   39.524228     -3786.6258      6724.9433      48.731617      2.3577398     -152940.24     -152846.69    
     56200   39.564833      20023.436      6724.9433      48.731617      2.3577398     -152942.01     -152848.37    
     56300   39.633824     -5144.0543      6724.9433      48.731617      2.3577398     -152949.51     -152855.71    
     56400   37.506559      23622.681      6724.9433      48.731617      2.3577398     -152945.56     -152856.79    
     56500   39.373637      6159.5155      6724.9433      48.731617      2.3577398     -152946.97     -152853.79    
     56600   41.96086       24389.574      6724.9433      48.731617      2.3577398     -152949.71     -152850.4     
     56700   38.765254      20821.109      6724.9433      48.731617      2.3577398     -152946.44     -152854.69    
     56800   39.608217      9194.8662      6724.9433      48.731617      2.3577398     -152953.38     -152859.64    
     56900   38.201894      21324.294      6724.9433      48.731617      2.3577398     -152950.06     -152859.65    
     57000   37.924962      12230.679      6724.9433      48.731617      2.3577398     -152945.24     -152855.48    
     57100   41.061828      22501.343      6724.9433      48.731617      2.3577398     -152949.7      -152852.52    
     57200   39.113162      5736.7382      6724.9433      48.731617      2.3577398     -152945.93     -152853.36    
     57300   40.329036      23487.051      6724.9433      48.731617      2.3577398     -152948.71     -152853.26    
     57400   41.473283      11444.804      6724.9433      48.731617      2.3577398     -152952.46     -152854.3     
     57500   37.951802      19655.976      6724.9433      48.731617      2.3577398     -152947.49     -152857.66    
     57600   39.116489      14044.117      6724.9433      48.731617      2.3577398     -152951.6      -152859.02    
     57700   41.758873      10065.426      6724.9433      48.731617      2.3577398     -152952.72     -152853.88    
     57800   42.057662      1585.9824      6724.9433      48.731617      2.3577398     -152948.94     -152849.4     
     57900   42.157903      21501.893      6724.9433      48.731617      2.3577398     -152950.01     -152850.23    
     58000   40.807051      6878.5379      6724.9433      48.731617      2.3577398     -152943.07     -152846.49    
     58100   40.445761      13300.906      6724.9433      48.731617      2.3577398     -152947.58     -152851.86    
     58200   38.593274     -6598.5478      6724.9433      48.731617      2.3577398     -152945.15     -152853.81    
     58300   40.322608      27808.915      6724.9433      48.731617      2.3577398     -152948.66     -152853.22    
     58400   42.203243      4367.1632      6724.9433      48.731617      2.3577398     -152947.96     -152848.08    
     58500   41.678949      25028.119      6724.9433      48.731617      2.3577398     -152943.77     -152845.12    
     58600   41.032889      3815.1567      6724.9433      48.731617      2.3577398     -152947.87     -152850.76    
     58700   41.025603      17348.857      6724.9433      48.731617      2.3577398     -152950.52     -152853.43    
     58800   39.673016      16373.146      6724.9433      48.731617      2.3577398     -152946.64     -152852.75    
     58900   40.472629      13492.436      6724.9433      48.731617      2.3577398     -152945.1      -152849.31    
     59000   40.590287      14854.313      6724.9433      48.731617      2.3577398     -152947.12     -152851.05    
     59100   36.56259       18630.067      6724.9433      48.731617      2.3577398     -152942.63     -152856.09    
     59200   40.211477      16835.52       6724.9433      48.731617      2.3577398     -152950.93     -152855.76    
     59300   40.507555      22410.786      6724.9433      48.731617      2.3577398     -152943.88     -152848.01    
     59400   40.98916       29507.108      6724.9433      48.731617      2.3577398     -152940.89     -152843.87    
     59500   39.723955      20178.756      6724.9433      48.731617      2.3577398     -152940.65     -152846.64    
     59600   41.199652     -834.5471       6724.9433      48.731617      2.3577398     -152948.77     -152851.26    
     59700   40.331784      22586.315      6724.9433      48.731617      2.3577398     -152950.34     -152854.88    
     59800   40.990714      5585.1649      6724.9433      48.731617      2.3577398     -152951.98     -152854.97    
     59900   39.52799      -403.81848      6724.9433      48.731617      2.3577398     -152946.94     -152853.39    
     60000   39.56488       25886.312      6724.9433      48.731617      2.3577398     -152944.07     -152850.43    
     60100   41.426058      10647.991      6724.9433      48.731617      2.3577398     -152943.84     -152845.8     
     60200   41.290353      20814.315      6724.9433      48.731617      2.3577398     -152942.79     -152845.07    
     60300   40.694508      15596.493      6724.9433      48.731617      2.3577398     -152948.32     -152852.01    
     60400   38.851603      22922.883      6724.9433      48.731617      2.3577398     -152947.94     -152855.99    
     60500   41.53068       18034.12       6724.9433      48.731617      2.3577398     -152954.3      -152856.01    
     60600   39.951234      29297.238      6724.9433      48.731617      2.3577398     -152948.97     -152854.41    
     60700   40.362607      127.48375      6724.9433      48.731617      2.3577398     -152946.69     -152851.16    
     60800   42.043793      33924.171      6724.9433      48.731617      2.3577398     -152947.51     -152848       
     60900   40.241865      7284.3515      6724.9433      48.731617      2.3577398     -152946.36     -152851.11    
     61000   40.249742      28006.545      6724.9433      48.731617      2.3577398     -152951.63     -152856.36    
     61100   38.553561     -4812.1113      6724.9433      48.731617      2.3577398     -152951.15     -152859.9     
     61200   39.219626      36300.275      6724.9433      48.731617      2.3577398     -152950.75     -152857.93    
     61300   40.602233      6380.2337      6724.9433      48.731617      2.3577398     -152951.59     -152855.5     
     61400   39.719763      21356.23       6724.9433      48.731617      2.3577398     -152948.58     -152854.57    
     61500   40.251155      17865.225      6724.9433      48.731617      2.3577398     -152947.78     -152852.51    
     61600   41.229907      21059.629      6724.9433      48.731617      2.3577398     -152948.53     -152850.95    
     61700   40.998544      20683.745      6724.9433      48.731617      2.3577398     -152951.85     -152854.81    
     61800   38.159973      15519.137      6724.9433      48.731617      2.3577398     -152951.7      -152861.38    
     61900   39.817785      45031.614      6724.9433      48.731617      2.3577398     -152953.02     -152858.78    
     62000   38.829135      10937.059      6724.9433      48.731617      2.3577398     -152945.28     -152853.38    
     62100   41.270416      22869.979      6724.9433      48.731617      2.3577398     -152947.83     -152850.16    
     62200   40.194906      15020.604      6724.9433      48.731617      2.3577398     -152947.97     -152852.83    
     62300   39.660132      24733.34       6724.9433      48.731617      2.3577398     -152950.23     -152856.36    
     62400   40.887534      14703.842      6724.9433      48.731617      2.3577398     -152952.53     -152855.75    
     62500   39.363152      22852.778      6724.9433      48.731617      2.3577398     -152947.98     -152854.82    
     62600   38.578067      20999.995      6724.9433      48.731617      2.3577398     -152945.82     -152854.51    
     62700   39.609148      29942.35       6724.9433      48.731617      2.3577398     -152947.16     -152853.41    
     62800   41.011039      23557.829      6724.9433      48.731617      2.3577398     -152950.33     -152853.27    
     62900   38.861346      11477.501      6724.9433      48.731617      2.3577398     -152949.08     -152857.1     
     63000   37.284062      19900.879      6724.9433      48.731617      2.3577398     -152952.36     -152864.11    
     63100   40.205303      2394.1451      6724.9433      48.731617      2.3577398     -152955.13     -152859.97    
     63200   39.140976      24687.335      6724.9433      48.731617      2.3577398     -152946.63     -152853.99    
     63300   42.116174      4877.5494      6724.9433      48.731617      2.3577398     -152950.25     -152850.57    
     63400   38.728655      26717.762      6724.9433      48.731617      2.3577398     -152944.86     -152853.2     
     63500   39.301544      4263.1601      6724.9433      48.731617      2.3577398     -152950.28     -152857.26    
     63600   40.488495      17513.606      6724.9433      48.731617      2.3577398     -152953.24     -152857.41    
     63700   39.670507      10084.506      6724.9433      48.731617      2.3577398     -152943.69     -152849.8     
     63800   41.406624      38271.714      6724.9433      48.731617      2.3577398     -152944.98     -152846.98    
     63900   39.888203      10449.971      6724.9433      48.731617      2.3577398     -152945.32     -152850.91    
     64000   38.719048      35660.775      6724.9433      48.731617      2.3577398     -152946.4      -152854.77    
     64100   43.405865      22228.119      6724.9433      48.731617      2.3577398     -152948.11     -152845.38    
     64200   40.392943      25472.92       6724.9433      48.731617      2.3577398     -152941.1      -152845.5     
     64300   39.487711      27755.898      6724.9433      48.731617      2.3577398     -152941.15     -152847.69    
     64400   39.944733      25489.869      6724.9433      48.731617      2.3577398     -152950.89     -152856.35    
     64500   39.049763      15100.802      6724.9433      48.731617      2.3577398     -152948.6      -152856.18    
[...]
    384200   40.165362      26161.723      6724.9433      48.731617      2.3577398     -153073.71     -152978.65    
    384300   40.985888      17755.341      6724.9433      48.731617      2.3577398     -153072.64     -152975.64    
    384400   40.3728        9057.6666      6724.9433      48.731617      2.3577398     -153069.78     -152974.23    
    384500   39.740574      22722.813      6724.9433      48.731617      2.3577398     -153067.89     -152973.83    
    384600   40.264221      20241.546      6724.9433      48.731617      2.3577398     -153068.44     -152973.15    
    384700   40.074218      23159.397      6724.9433      48.731617      2.3577398     -153066.6      -152971.75    
    384800   39.137447     -2019.7086      6724.9433      48.731617      2.3577398     -153065.26     -152972.63    
    384900   37.558146      22006.452      6724.9433      48.731617      2.3577398     -153064.97     -152976.08    
    385000   39.726267      498.82309      6724.9433      48.731617      2.3577398     -153071.92     -152977.9     
    385100   40.042237      23144.522      6724.9433      48.731617      2.3577398     -153072.55     -152977.78    
    385200   41.554606      9595.9124      6724.9433      48.731617      2.3577398     -153070.71     -152972.36    
    385300   42.10817       24458.27       6724.9433      48.731617      2.3577398     -153068.87     -152969.21    
    385400   41.425213      8981.8317      6724.9433      48.731617      2.3577398     -153069.93     -152971.89    
    385500   39.70574       11693.264      6724.9433      48.731617      2.3577398     -153072.36     -152978.39    
    385600   39.255         18792.296      6724.9433      48.731617      2.3577398     -153070.88     -152977.97    
    385700   39.161057      13609.519      6724.9433      48.731617      2.3577398     -153067.94     -152975.26    
    385800   40.902246      16869.703      6724.9433      48.731617      2.3577398     -153068.55     -152971.75    
    385900   40.807423      35861.552      6724.9433      48.731617      2.3577398     -153069.2      -152972.62    
    386000   37.564933      9475.5857      6724.9433      48.731617      2.3577398     -153067.91     -152979.01    
    386100   38.563086      15345.371      6724.9433      48.731617      2.3577398     -153073.79     -152982.52    
    386200   39.617685      38281.745      6724.9433      48.731617      2.3577398     -153073.69     -152979.93    
    386300   39.818231      5325.1107      6724.9433      48.731617      2.3577398     -153069.9      -152975.66    
    386400   40.394669      19410.567      6724.9433      48.731617      2.3577398     -153070.42     -152974.82    
    386500   38.921409     -514.89533      6724.9433      48.731617      2.3577398     -153065.93     -152973.82    
    386600   41.20323       27971.665      6724.9433      48.731617      2.3577398     -153065.03     -152967.51    
    386700   40.518964     -3588.6004      6724.9433      48.731617      2.3577398     -153060.99     -152965.09    
    386800   39.666706      24239.728      6724.9433      48.731617      2.3577398     -153066.51     -152972.63    
    386900   39.557588      35229.163      6724.9433      48.731617      2.3577398     -153069.5      -152975.88    
    387000   38.972317     -945.03856      6724.9433      48.731617      2.3577398     -153069.43     -152977.19    
    387100   40.890806      34130.601      6724.9433      48.731617      2.3577398     -153072.04     -152975.26    
    387200   40.834518      3617.7269      6724.9433      48.731617      2.3577398     -153067.41     -152970.77    
    387300   41.84896       21656.055      6724.9433      48.731617      2.3577398     -153070.47     -152971.43    
    387400   40.741209      25678.516      6724.9433      48.731617      2.3577398     -153074.66     -152978.24    
    387500   38.582107      28926.556      6724.9433      48.731617      2.3577398     -153070.56     -152979.24    
    387600   40.123979      12094.677      6724.9433      48.731617      2.3577398     -153072        -152977.03    
    387700   41.214081      7495.1104      6724.9433      48.731617      2.3577398     -153070.82     -152973.28    
    387800   40.640027      38839.235      6724.9433      48.731617      2.3577398     -153067.14     -152970.95    
    387900   40.78436       813.0059       6724.9433      48.731617      2.3577398     -153068.23     -152971.71    
    388000   38.113213      29815.445      6724.9433      48.731617      2.3577398     -153071.29     -152981.08    
    388100   38.720567      145.1836       6724.9433      48.731617      2.3577398     -153072.87     -152981.22    
    388200   39.70785       25057.657      6724.9433      48.731617      2.3577398     -153070.29     -152976.31    
    388300   39.532957     -1406.5784      6724.9433      48.731617      2.3577398     -153066.4      -152972.84    
    388400   39.337379      22432.522      6724.9433      48.731617      2.3577398     -153065.2      -152972.1     
    388500   40.656171      11602.444      6724.9433      48.731617      2.3577398     -153071.1      -152974.88    
    388600   38.837213      9738.005       6724.9433      48.731617      2.3577398     -153073.85     -152981.94    
    388700   37.653317      32083.204      6724.9433      48.731617      2.3577398     -153069.44     -152980.32    
    388800   40.064092     -4290.1421      6724.9433      48.731617      2.3577398     -153069.98     -152975.16    
    388900   39.361678      33898.412      6724.9433      48.731617      2.3577398     -153067.26     -152974.1     
    389000   39.607295      9471.9112      6724.9433      48.731617      2.3577398     -153068.57     -152974.83    
    389100   39.86383       16019.825      6724.9433      48.731617      2.3577398     -153071.7      -152977.35    
    389200   39.04913       16549.908      6724.9433      48.731617      2.3577398     -153074.86     -152982.44    
    389300   38.850356      14986.835      6724.9433      48.731617      2.3577398     -153073.03     -152981.08    
    389400   41.439891      12311.357      6724.9433      48.731617      2.3577398     -153071.9      -152973.82    
    389500   39.999546      15862.707      6724.9433      48.731617      2.3577398     -153066.68     -152972.01    
    389600   37.624228      20304.242      6724.9433      48.731617      2.3577398     -153062.22     -152973.18    
    389700   39.813573      7061.0388      6724.9433      48.731617      2.3577398     -153067.93     -152973.7     
    389800   39.699711      30959.715      6724.9433      48.731617      2.3577398     -153070.43     -152976.47    
    389900   39.78329       16897.301      6724.9433      48.731617      2.3577398     -153075.27     -152981.12    
    390000   38.488023      17604.403      6724.9433      48.731617      2.3577398     -153071.51     -152980.42    
    390100   42.183458      4252.9403      6724.9433      48.731617      2.3577398     -153073.66     -152973.82    
    390200   40.929348      25140.148      6724.9433      48.731617      2.3577398     -153067.99     -152971.12    
    390300   40.590095     -3252.7636      6724.9433      48.731617      2.3577398     -153067.99     -152971.93    
    390400   39.40012       33573.515      6724.9433      48.731617      2.3577398     -153070.58     -152977.33    
    390500   39.343057      7936.1681      6724.9433      48.731617      2.3577398     -153073.05     -152979.94    
    390600   39.090948      34799.11       6724.9433      48.731617      2.3577398     -153070.56     -152978.04    
    390700   39.257555     -1797.4216      6724.9433      48.731617      2.3577398     -153069.2      -152976.29    
    390800   42.024827      32251.327      6724.9433      48.731617      2.3577398     -153073.67     -152974.21    
    390900   40.209882      11821.969      6724.9433      48.731617      2.3577398     -153068.29     -152973.13    
    391000   39.139107      22463.463      6724.9433      48.731617      2.3577398     -153067.79     -152975.15    
    391100   37.871619      17364.929      6724.9433      48.731617      2.3577398     -153069.65     -152980.02    
    391200   38.610681      15596.347      6724.9433      48.731617      2.3577398     -153070.62     -152979.23    
    391300   40.985078      18400.19       6724.9433      48.731617      2.3577398     -153071.5      -152974.49    
    391400   39.723768      19628.181      6724.9433      48.731617      2.3577398     -153064.79     -152970.77    
    391500   42.349202      17240.527      6724.9433      48.731617      2.3577398     -153070.56     -152970.33    
    391600   40.123793      12507.909      6724.9433      48.731617      2.3577398     -153067.99     -152973.03    
    391700   40.301904      25667.452      6724.9433      48.731617      2.3577398     -153068.98     -152973.59    
    391800   40.865013      15487.961      6724.9433      48.731617      2.3577398     -153072.03     -152975.32    
    391900   39.885418      17268.605      6724.9433      48.731617      2.3577398     -153071.77     -152977.37    
    392000   38.927862      12937.964      6724.9433      48.731617      2.3577398     -153073.76     -152981.63    
    392100   38.632405      15555.719      6724.9433      48.731617      2.3577398     -153074.18     -152982.74    
    392200   40.809217      24655.093      6724.9433      48.731617      2.3577398     -153071.55     -152974.96    
    392300   39.904351      12678.883      6724.9433      48.731617      2.3577398     -153066.51     -152972.06    
    392400   40.698374      9747.4986      6724.9433      48.731617      2.3577398     -153067.04     -152970.72    
    392500   39.261238      18897.689      6724.9433      48.731617      2.3577398     -153064.72     -152971.8     
    392600   39.877828      8271.0924      6724.9433      48.731617      2.3577398     -153072.44     -152978.06    
    392700   38.535562      23899.137      6724.9433      48.731617      2.3577398     -153072.27     -152981.06    
    392800   39.478146      4777.2992      6724.9433      48.731617      2.3577398     -153071.44     -152978       
    392900   39.647975      28381.632      6724.9433      48.731617      2.3577398     -153069.43     -152975.59    
    393000   40.884055      13968.421      6724.9433      48.731617      2.3577398     -153071.39     -152974.63    
    393100   39.865369      20370.269      6724.9433      48.731617      2.3577398     -153068.62     -152974.27    
    393200   40.137026      18800.223      6724.9433      48.731617      2.3577398     -153069.27     -152974.28    
    393300   41.447083      33029.194      6724.9433      48.731617      2.3577398     -153069.38     -152971.28    
    393400   40.078209      16380.234      6724.9433      48.731617      2.3577398     -153063.98     -152969.12    
    393500   41.613528      5740.3718      6724.9433      48.731617      2.3577398     -153070.59     -152972.1     
    393600   40.331983      32391.15       6724.9433      48.731617      2.3577398     -153073.1      -152977.64    
    393700   39.383384     -1588.4701      6724.9433      48.731617      2.3577398     -153071.76     -152978.55    
    393800   41.414293      34958.879      6724.9433      48.731617      2.3577398     -153073.1      -152975.08    
    393900   41.656532      2220.9176      6724.9433      48.731617      2.3577398     -153070.42     -152971.83    
    394000   40.917761      19446.888      6724.9433      48.731617      2.3577398     -153068.81     -152971.97    
    394100   40.001299      7734.1327      6724.9433      48.731617      2.3577398     -153067.55     -152972.88    
    394200   39.661986      15779.502      6724.9433      48.731617      2.3577398     -153069.09     -152975.22    
    394300   39.267296      1336.535       6724.9433      48.731617      2.3577398     -153071.03     -152978.09    
    394400   38.189403      29115.91       6724.9433      48.731617      2.3577398     -153070.72     -152980.34    
    394500   39.171743      8718.6017      6724.9433      48.731617      2.3577398     -153070.25     -152977.54    
    394600   41.515962      39215.448      6724.9433      48.731617      2.3577398     -153070.13     -152971.87    
    394700   40.754888      12131.239      6724.9433      48.731617      2.3577398     -153067.35     -152970.89    
    394800   37.952214      39217.79       6724.9433      48.731617      2.3577398     -153065.11     -152975.29    
    394900   38.837235      5550.1393      6724.9433      48.731617      2.3577398     -153071.74     -152979.82    
    395000   37.089289      26131.906      6724.9433      48.731617      2.3577398     -153073.67     -152985.89    
    395100   38.487248      13240.005      6724.9433      48.731617      2.3577398     -153074.2      -152983.11    
    395200   40.050081      21629.758      6724.9433      48.731617      2.3577398     -153071.2      -152976.41    
    395300   40.565053      22578.132      6724.9433      48.731617      2.3577398     -153070        -152974       
    395400   41.230805      7411.0507      6724.9433      48.731617      2.3577398     -153069.51     -152971.92    
    395500   41.502879      27015.417      6724.9433      48.731617      2.3577398     -153070.36     -152972.14    
    395600   40.835739      13735.241      6724.9433      48.731617      2.3577398     -153072.86     -152976.21    
    395700   37.786243      13529.97       6724.9433      48.731617      2.3577398     -153069.65     -152980.22    
    395800   39.913113      9026.7142      6724.9433      48.731617      2.3577398     -153075.06     -152980.59    
    395900   39.840045      35439.055      6724.9433      48.731617      2.3577398     -153067.8      -152973.51    
    396000   41.810035      9070.654       6724.9433      48.731617      2.3577398     -153069.16     -152970.21    
    396100   40.618969      38395.794      6724.9433      48.731617      2.3577398     -153069.38     -152973.24    
    396200   39.763557     -1098.3606      6724.9433      48.731617      2.3577398     -153071.78     -152977.67    
    396300   38.740206      30166.356      6724.9433      48.731617      2.3577398     -153070.92     -152979.23    
    396400   39.989312      8394.4654      6724.9433      48.731617      2.3577398     -153072.36     -152977.71    
    396500   39.741042      22195.288      6724.9433      48.731617      2.3577398     -153069.23     -152975.17    
    396600   40.54959       17095.448      6724.9433      48.731617      2.3577398     -153068.8      -152972.83    
    396700   41.136717      3467.6528      6724.9433      48.731617      2.3577398     -153067.26     -152969.9     
    396800   42.729358      37269.858      6724.9433      48.731617      2.3577398     -153067.09     -152965.96    
    396900   43.15817       7344.2259      6724.9433      48.731617      2.3577398     -153070.37     -152968.23    
    397000   41.374085      23991.209      6724.9433      48.731617      2.3577398     -153073.62     -152975.69    
    397100   40.031212      21552.086      6724.9433      48.731617      2.3577398     -153072.42     -152977.67    
    397200   38.925997      20343.739      6724.9433      48.731617      2.3577398     -153069.33     -152977.2     
    397300   41.183535      3351.3241      6724.9433      48.731617      2.3577398     -153070.07     -152972.6     
    397400   40.083304      29967.873      6724.9433      48.731617      2.3577398     -153063.51     -152968.64    
    397500   40.377845     -1782.4718      6724.9433      48.731617      2.3577398     -153067.94     -152972.37    
    397600   37.169947      26263.51       6724.9433      48.731617      2.3577398     -153067.17     -152979.2     
    397700   40.126145      1716.5289      6724.9433      48.731617      2.3577398     -153071.57     -152976.61    
    397800   41.376173      30249.382      6724.9433      48.731617      2.3577398     -153070.66     -152972.74    
    397900   40.530444      15228.881      6724.9433      48.731617      2.3577398     -153066.31     -152970.39    
    398000   40.414493      11661.448      6724.9433      48.731617      2.3577398     -153068.35     -152972.7     
    398100   37.956123      17899.246      6724.9433      48.731617      2.3577398     -153069.44     -152979.6     
    398200   40.165265      5520.4723      6724.9433      48.731617      2.3577398     -153074.57     -152979.51    
    398300   40.132849      32758.527      6724.9433      48.731617      2.3577398     -153071.14     -152976.16    
    398400   41.451783      12774.94       6724.9433      48.731617      2.3577398     -153069.29     -152971.18    
    398500   42.586724      29197.398      6724.9433      48.731617      2.3577398     -153067.63     -152966.84    
    398600   41.744724      10882.653      6724.9433      48.731617      2.3577398     -153067.98     -152969.18    
    398700   39.686409      22958.539      6724.9433      48.731617      2.3577398     -153065.72     -152971.79    
    398800   39.029684      14126.034      6724.9433      48.731617      2.3577398     -153066.75     -152974.37    
    398900   38.255172      12074.67       6724.9433      48.731617      2.3577398     -153068.41     -152977.87    
    399000   38.307598      18538.909      6724.9433      48.731617      2.3577398     -153069.12     -152978.45    
    399100   41.849478      10032.782      6724.9433      48.731617      2.3577398     -153071.95     -152972.9     
    399200   41.755981      10157.844      6724.9433      48.731617      2.3577398     -153067.89     -152969.06    
    399300   40.058368      15738.687      6724.9433      48.731617      2.3577398     -153066.28     -152971.47    
    399400   39.817463      14877.813      6724.9433      48.731617      2.3577398     -153069.99     -152975.76    
    399500   39.124327      12890.416      6724.9433      48.731617      2.3577398     -153071.61     -152979.01    
    399600   37.486803      9117.7745      6724.9433      48.731617      2.3577398     -153073.33     -152984.61    
    399700   37.677441      3975.4806      6724.9433      48.731617      2.3577398     -153076.96     -152987.79    
    399800   38.355539      34262.64       6724.9433      48.731617      2.3577398     -153071.8      -152981.02    
    399900   39.737325      14226.535      6724.9433      48.731617      2.3577398     -153069.24     -152975.19    
    400000   41.396815      13817.953      6724.9433      48.731617      2.3577398     -153069.29     -152971.32    
    400011   41.054897      24589.272      6724.9433      48.731617      2.3577398     -153068.56     -152971.39    
Loop time of 14992.2 on 64 procs for 400000 steps with 795 atoms

Performance: 0.576 ns/day, 41.645 hours/ns, 26.681 timesteps/s
99.6% CPU use with 64 MPI tasks x 1 OpenMP threads

MPI task timing breakdown:
Section |  min time  |  avg time  |  max time  |%varavg| %total
---------------------------------------------------------------
Pair    | 8600.5     | 11088      | 13693      |1385.9 | 73.96
Neigh   | 12.807     | 16.132     | 20.103     |  50.4 |  0.11
Comm    | 136.08     | 2565.9     | 5012.2     |2648.9 | 17.11
Output  | 0.51031    | 1.5886     | 2.6013     |  56.2 |  0.01
Modify  | 1123.9     | 1317.4     | 2434       | 665.9 |  8.79
Other   |            | 3.143      |            |       |  0.02

Nlocal:        12.4219 ave          16 max           7 min
Histogram: 1 1 3 9 3 16 12 5 12 2
Nghost:        2190.66 ave        2498 max        1937 min
Histogram: 7 10 1 6 19 5 1 5 6 4
Neighs:        6820.25 ave        9078 max        3409 min
Histogram: 3 2 7 4 8 6 7 11 4 12

Total # of neighbors = 436496
Ave neighs/atom = 549.05157
Neighbor list builds = 1508
Dangerous builds = 0

write_data graphene_single_layer_ReaxFF_750_C_temp_40K.data ### MODIFY FILE NAME ###
System init for write_data ...
Total wall time: 4:09:54
