
# System definition
read_data graphene_single_layer_x-45_y-45_795_C.data ### MODIFY FILE NAME ###
Reading data file ...
  orthogonal box = (-1.4464652 -1.4423034 -1.42) to (47.285152 47.149102 1.42)
  8 by 8 by 1 MPI processor grid
  reading atoms ...
  795 atoms
  reading velocities ...
  795 velocities
  read_data CPU = 0.055 seconds

pair_style reax/c NULL
pair_coeff * * ffield.reax.cho C
Reading potential file ffield.reax.cho with DATE: 2011-02-18
fix qeq_reax all qeq/reax 1 0.0 10.0 1.0e-6 reax/c


# Minimization
timestep 0.25
min_style cg
thermo 100
thermo_style custom step temp press vol lx density pe etotal
dump 2 all custom 1000 graphene_single_layer_ReaxFF_795_C_temp_800K.lammpstrj id type x y z ### MODIFY FILE NAME ###
minimize 1.0e-6 1.0e-6 100 1000

CITE-CITE-CITE-CITE-CITE-CITE-CITE-CITE-CITE-CITE-CITE-CITE-CITE

Your simulation uses code contributions which should be cited:

- pair reaxff command:

@Article{Aktulga12,
 author = {H. M. Aktulga, J. C. Fogarty, S. A. Pandit, A. Y. Grama},
 title = {Parallel reactive molecular dynamics: Numerical methods and algorithmic techniques},
 journal = {Parallel Computing},
 year =    2012,
 volume =  38,
 pages =   {245--259}
}

- fix qeq/reaxff command:

@Article{Aktulga12,
 author = {H. M. Aktulga, J. C. Fogarty, S. A. Pandit, A. Y. Grama},
 title = {Parallel reactive molecular dynamics: Numerical methods and algorithmic techniques},
 journal = {Parallel Computing},
 year =    2012,
 volume =  38,
 pages =   {245--259}
}

CITE-CITE-CITE-CITE-CITE-CITE-CITE-CITE-CITE-CITE-CITE-CITE-CITE

WARNING: Using 'neigh_modify every 1 delay 0 check yes' setting during minimization (src/min.cpp:187)
Neighbor list info ...
  update every 1 steps, delay 0 steps, check yes
  max neighbors/atom: 10000, page size: 100000
  master list distance cutoff = 10.4
  ghost atom cutoff = 10.4
  binsize = 5.2, bins = 10 10 1
  2 neighbor lists, perpetual/occasional/extra = 2 0 0
  (1) pair reax/c, perpetual
      attributes: half, newton off, ghost
      pair build: half/bin/newtoff/ghost
      stencil: full/ghost/bin/3d
      bin: standard
  (2) fix qeq/reax, perpetual, copy from (1)
      attributes: half, newton off
      pair build: copy
      stencil: none
      bin: none
Per MPI rank memory allocation (min/avg/max) = 36.37 | 41.41 | 47.38 Mbytes
   Step          Temp          Press          Volume           Lx          Density         PotEng         TotEng    
         0   923            34054.396      6724.9433      48.731617      2.3577398     -151766.67     -149582.14    
        11   923            35396.792      6724.9433      48.731617      2.3577398     -151904.55     -149720.03    
Loop time of 2.11075 on 64 procs for 11 steps with 795 atoms

99.4% CPU use with 64 MPI tasks x 1 OpenMP threads

Minimization stats:
  Stopping criterion = energy tolerance
  Energy initial, next-to-last, final = 
     -151766.666472543  -151904.508881892  -151904.547898656
  Force two-norm initial, final = 279.94165 356.09863
  Force max component initial, final = 137.99181 55.448555
  Final line search alpha, max atom move = 0.00038853166 0.021543519
  Iterations, force evaluations = 11 32

MPI task timing breakdown:
Section |  min time  |  avg time  |  max time  |%varavg| %total
---------------------------------------------------------------
Pair    | 0.80115    | 1.2471     | 1.5967     |  18.6 | 59.08
Neigh   | 0.01146    | 0.018943   | 0.025889   |   2.3 |  0.90
Comm    | 0.11881    | 0.44477    | 0.8373     |  26.9 | 21.07
Output  | 0          | 0          | 0          |   0.0 |  0.00
Modify  | 0.30932    | 0.31631    | 0.3237     |   0.6 | 14.99
Other   |            | 0.08361    |            |       |  3.96

Nlocal:        12.4219 ave          15 max          10 min
Histogram: 15 0 0 0 22 0 12 0 0 15
Nghost:        2194.12 ave        2559 max        1869 min
Histogram: 2 8 9 4 12 12 5 4 6 2
Neighs:        6807.34 ave        8856 max        4476 min
Histogram: 4 8 3 7 7 13 5 2 0 15

Total # of neighbors = 435670
Ave neighs/atom = 548.01258
Neighbor list builds = 1
Dangerous builds = 0

fix 1 all nvt temp 800.0 800.0 $(100.0*dt)  ### MODIFY INIT TEMP, FINAL TEMP ###
fix 1 all nvt temp 800.0 800.0 25  
run 400000
Per MPI rank memory allocation (min/avg/max) = 35.25 | 40.29 | 46.26 Mbytes
   Step          Temp          Press          Volume           Lx          Density         PotEng         TotEng    
        11   923            35396.792      6724.9433      48.731617      2.3577398     -151904.55     -149720.03    
       100   587.59979      31768.916      6724.9433      48.731617      2.3577398     -150963.23     -149572.52    
       200   590.70174      185453.71      6724.9433      48.731617      2.3577398     -150670.09     -149272.04    
       300   761.38615      10963.743      6724.9433      48.731617      2.3577398     -150740.44     -148938.42    
       400   844.12667     -45491.617      6724.9433      48.731617      2.3577398     -150679.08     -148681.23    
       500   880.04624      64253.387      6724.9433      48.731617      2.3577398     -150740.88     -148658.02    
       600   769.9032       89785.599      6724.9433      48.731617      2.3577398     -150727.34     -148905.16    
       700   819.81716      26373.629      6724.9433      48.731617      2.3577398     -151045.93     -149105.62    
       800   803.61788      23236.855      6724.9433      48.731617      2.3577398     -151144.48     -149242.51    
       900   796.76119      62977.464      6724.9433      48.731617      2.3577398     -151156.18     -149270.43    
      1000   786.50341      91186.782      6724.9433      48.731617      2.3577398     -151057.13     -149195.66    
      1100   813.15609     -31525.664      6724.9433      48.731617      2.3577398     -151002.35     -149077.8     
      1200   836.13718      50408.515      6724.9433      48.731617      2.3577398     -151030.07     -149051.13    
      1300   805.67897      44640.327      6724.9433      48.731617      2.3577398     -151052.64     -149145.79    
      1400   778.0841       52635.65       6724.9433      48.731617      2.3577398     -151073.31     -149231.77    
      1500   786.03894     -14569.665      6724.9433      48.731617      2.3577398     -151109.68     -149249.31    
      1600   825.26978      9533.2416      6724.9433      48.731617      2.3577398     -151153.99     -149200.77    
      1700   798.27199      9045.9473      6724.9433      48.731617      2.3577398     -151019.32     -149130       
      1800   851.70897      54316.673      6724.9433      48.731617      2.3577398     -151107.1      -149091.31    
      1900   784.82095      41012.537      6724.9433      48.731617      2.3577398     -151051.1      -149193.62    
      2000   753.43494      18459.934      6724.9433      48.731617      2.3577398     -151073.2      -149290       
      2100   776.78241     -3592.7112      6724.9433      48.731617      2.3577398     -151127.54     -149289.08    
      2200   812.48716      42269.652      6724.9433      48.731617      2.3577398     -151155.45     -149232.48    
      2300   838.95375      32143.807      6724.9433      48.731617      2.3577398     -151071.5      -149085.9     
      2400   829.48896      1943.2655      6724.9433      48.731617      2.3577398     -151056.59     -149093.38    
      2500   782.10785     -28275.36       6724.9433      48.731617      2.3577398     -151023.92     -149172.86    
      2600   831.90284      9327.5226      6724.9433      48.731617      2.3577398     -151168.1      -149199.18    
      2700   777.81837      24454.436      6724.9433      48.731617      2.3577398     -151062.94     -149222.03    
      2800   809.59669      24454.165      6724.9433      48.731617      2.3577398     -151092.14     -149176.02    
      2900   807.13926      34516.088      6724.9433      48.731617      2.3577398     -150995.02     -149084.71    
      3000   812.72924      5084.3062      6724.9433      48.731617      2.3577398     -151015.69     -149092.16    
      3100   795.93584      30014.218      6724.9433      48.731617      2.3577398     -151111.55     -149227.76    
      3200   800.23081      11642.468      6724.9433      48.731617      2.3577398     -151174.86     -149280.9     
      3300   790.33823      6269.7134      6724.9433      48.731617      2.3577398     -151143.35     -149272.81    
      3400   769.64874      6683.1554      6724.9433      48.731617      2.3577398     -151021.22     -149199.64    
      3500   861.31618      73779.157      6724.9433      48.731617      2.3577398     -151129.47     -149090.94    
      3600   830.90107      24540.7        6724.9433      48.731617      2.3577398     -151086.69     -149120.14    
      3700   791.26136     -38559.299      6724.9433      48.731617      2.3577398     -151047.9      -149175.17    
      3800   797.06766      10460.123      6724.9433      48.731617      2.3577398     -151125.07     -149238.59    
      3900   806.68448     -17125.472      6724.9433      48.731617      2.3577398     -151196.32     -149287.09    
      4000   770.2793      -43136.36       6724.9433      48.731617      2.3577398     -151131.36     -149308.29    
      4100   774.0576       5579.3038      6724.9433      48.731617      2.3577398     -151101.51     -149269.49    
      4200   806.79689      78.679003      6724.9433      48.731617      2.3577398     -151106.82     -149197.32    
      4300   819.78079      54688.676      6724.9433      48.731617      2.3577398     -151083.72     -149143.49    
      4400   815.16961      3538.4281      6724.9433      48.731617      2.3577398     -151042.48     -149113.17    
      4500   780.1931       39274.507      6724.9433      48.731617      2.3577398     -151013.97     -149167.44    
      4600   781.56907      33161.069      6724.9433      48.731617      2.3577398     -151134.71     -149284.92    
      4700   738.91246      37794.565      6724.9433      48.731617      2.3577398     -151083.42     -149334.59    
      4800   768.92435      13978.346      6724.9433      48.731617      2.3577398     -151086.85     -149266.99    
      4900   801.28276     -1211.6886      6724.9433      48.731617      2.3577398     -151119.12     -149222.67    
      5000   791.92049     -18963.205      6724.9433      48.731617      2.3577398     -151106.42     -149232.13    
      5100   799.53849      44025.56       6724.9433      48.731617      2.3577398     -151120.99     -149228.67    
      5200   806.70673      53138.56       6724.9433      48.731617      2.3577398     -151159.26     -149249.97    
      5300   791.30269     -11019.297      6724.9433      48.731617      2.3577398     -151229.86     -149357.04    
      5400   759.31093      40157.585      6724.9433      48.731617      2.3577398     -151206.63     -149409.52    
      5500   762.13761      24164.962      6724.9433      48.731617      2.3577398     -151102.75     -149298.95    
      5600   787.76332     -10225.296      6724.9433      48.731617      2.3577398     -151073.14     -149208.69    
      5700   826.69195      43092.184      6724.9433      48.731617      2.3577398     -151129.49     -149172.91    
      5800   816.6681      -155.24941      6724.9433      48.731617      2.3577398     -151148.99     -149216.13    
      5900   794.34403      51969.47       6724.9433      48.731617      2.3577398     -151213.95     -149333.93    
      6000   790.69359      57607.887      6724.9433      48.731617      2.3577398     -151232.49     -149361.11    
      6100   772.00129      34895.18       6724.9433      48.731617      2.3577398     -151146.93     -149319.78    
      6200   809.31468     -19219.95       6724.9433      48.731617      2.3577398     -151161.91     -149246.46    
      6300   811.8108      -15199.078      6724.9433      48.731617      2.3577398     -151151.38     -149230.02    
      6400   811.07226      64122.808      6724.9433      48.731617      2.3577398     -151152.89     -149233.28    
      6500   804.53913     -16585.271      6724.9433      48.731617      2.3577398     -151154.32     -149250.17    
      6600   753.45037      23300.616      6724.9433      48.731617      2.3577398     -151070.2      -149286.96    
      6700   768.70706      58022.547      6724.9433      48.731617      2.3577398     -151113.84     -149294.49    
      6800   809.45441     -5589.6236      6724.9433      48.731617      2.3577398     -151150.09     -149234.3     
      6900   819.116        17542.416      6724.9433      48.731617      2.3577398     -151094.76     -149156.1     
      7000   841.96397      69345.834      6724.9433      48.731617      2.3577398     -151158.5      -149165.77    
      7100   789.31653      6943.7201      6724.9433      48.731617      2.3577398     -151178.5      -149310.38    
      7200   826.48351     -8484.2825      6724.9433      48.731617      2.3577398     -151256.33     -149300.24    
      7300   810.32446      47374.764      6724.9433      48.731617      2.3577398     -151189.22     -149271.38    
      7400   793.74231      15991.756      6724.9433      48.731617      2.3577398     -151132.44     -149253.84    
      7500   791.27329      47857.18       6724.9433      48.731617      2.3577398     -151090.32     -149217.56    
      7600   817.42906      53907.729      6724.9433      48.731617      2.3577398     -151104.5      -149169.84    
      7700   828.224        37947.336      6724.9433      48.731617      2.3577398     -151166.65     -149206.44    
      7800   797.50362      70571.897      6724.9433      48.731617      2.3577398     -151196        -149308.5     
      7900   755.08365      28746.691      6724.9433      48.731617      2.3577398     -151134.86     -149347.76    
      8000   784.39799      15880.758      6724.9433      48.731617      2.3577398     -151177.34     -149320.85    
      8100   806.08668      26571.255      6724.9433      48.731617      2.3577398     -151074.41     -149166.59    
      8200   826.29106      5876.6406      6724.9433      48.731617      2.3577398     -151070.2      -149114.57    
      8300   801.95523      22198.754      6724.9433      48.731617      2.3577398     -151105.81     -149207.77    
      8400   807.20747      18938.091      6724.9433      48.731617      2.3577398     -151199.51     -149289.04    
      8500   768.30461      16721.521      6724.9433      48.731617      2.3577398     -151118.81     -149300.42    
      8600   791.92812      22918.1        6724.9433      48.731617      2.3577398     -151128.85     -149254.55    
      8700   800.25315      20934.414      6724.9433      48.731617      2.3577398     -151027.54     -149133.53    
      8800   840.1639      -17169.153      6724.9433      48.731617      2.3577398     -151087.67     -149099.2     
      8900   811.88213      460.77009      6724.9433      48.731617      2.3577398     -151100.38     -149178.85    
      9000   809.09458      85732.422      6724.9433      48.731617      2.3577398     -151134.93     -149219.99    
      9100   793.3026       23996.625      6724.9433      48.731617      2.3577398     -151153.5      -149275.94    
      9200   780.6219       62632.912      6724.9433      48.731617      2.3577398     -151175.49     -149327.94    
      9300   802.59774      21607.685      6724.9433      48.731617      2.3577398     -151229.77     -149330.22    
      9400   823.76322      21857.352      6724.9433      48.731617      2.3577398     -151211.45     -149261.8     
      9500   814.01789      21686.277      6724.9433      48.731617      2.3577398     -151094.03     -149167.45    
      9600   799.2763       29516.592      6724.9433      48.731617      2.3577398     -151022.77     -149131.07    
      9700   806.76247      23090.522      6724.9433      48.731617      2.3577398     -151094.2      -149184.78    
      9800   791.00573      13000.735      6724.9433      48.731617      2.3577398     -151217.92     -149345.8     
      9900   774.31388      40196.736      6724.9433      48.731617      2.3577398     -151181.87     -149349.25    
     10000   795.0968       92729.966      6724.9433      48.731617      2.3577398     -151158.29     -149276.49    
     10100   842.81457      45255.754      6724.9433      48.731617      2.3577398     -151172.85     -149178.11    
     10200   844.07802      53002.87       6724.9433      48.731617      2.3577398     -151159.12     -149161.39    
     10300   777.38977     -8766.1601      6724.9433      48.731617      2.3577398     -151050.78     -149210.88    
     10400   828.28166      26340.285      6724.9433      48.731617      2.3577398     -151192.91     -149232.57    
     10500   795.28057      47595.811      6724.9433      48.731617      2.3577398     -151137.75     -149255.51    
     10600   790.51285      26278.231      6724.9433      48.731617      2.3577398     -151140.72     -149269.77    
     10700   844.48467      36883.208      6724.9433      48.731617      2.3577398     -151235.27     -149236.57    
     10800   821.41474     -32402.599      6724.9433      48.731617      2.3577398     -151112.52     -149168.43    
     10900   834.5645       20435.756      6724.9433      48.731617      2.3577398     -151073.66     -149098.44    
     11000   780.36171      36915.375      6724.9433      48.731617      2.3577398     -151036.87     -149189.94    
     11100   775.93172      31642.294      6724.9433      48.731617      2.3577398     -151109.26     -149272.82    
     11200   806.99221      24227.271      6724.9433      48.731617      2.3577398     -151190.97     -149281.01    
     11300   808.4582       2984.5154      6724.9433      48.731617      2.3577398     -151197.52     -149284.1     
     11400   838.76033      48520.92       6724.9433      48.731617      2.3577398     -151199.58     -149214.43    
     11500   843.95105      71051.361      6724.9433      48.731617      2.3577398     -151103.91     -149106.48    
     11600   828.00447     -9668.3244      6724.9433      48.731617      2.3577398     -151092.82     -149133.13    
     11700   790.392        25256.884      6724.9433      48.731617      2.3577398     -151135.45     -149264.78    
     11800   804.57508      67104.661      6724.9433      48.731617      2.3577398     -151189.29     -149285.05    
     11900   821.65816      37706.605      6724.9433      48.731617      2.3577398     -151235.11     -149290.44    
     12000   777.63919     -5030.9403      6724.9433      48.731617      2.3577398     -151180.42     -149339.93    
     12100   760.71768     -40033.731      6724.9433      48.731617      2.3577398     -151235.62     -149435.19    
     12200   765.96315      60221.293      6724.9433      48.731617      2.3577398     -151259.95     -149447.1     
     12300   796.26947      9997.1057      6724.9433      48.731617      2.3577398     -151176.31     -149291.73    
     12400   780.23866      23593.921      6724.9433      48.731617      2.3577398     -151088.26     -149241.62    
     12500   805.26364      55499.379      6724.9433      48.731617      2.3577398     -151123.77     -149217.91    
     12600   821.48286      6042.0492      6724.9433      48.731617      2.3577398     -151177.41     -149233.15    
     12700   793.99084      72848.478      6724.9433      48.731617      2.3577398     -151227.75     -149348.57    
     12800   800.08061      41638.591      6724.9433      48.731617      2.3577398     -151295.93     -149402.33    
     12900   794.60971      20859.859      6724.9433      48.731617      2.3577398     -151216.68     -149336.02    
     13000   807.70598      25918.892      6724.9433      48.731617      2.3577398     -151177.75     -149266.1     
     13100   782.62287      48862.764      6724.9433      48.731617      2.3577398     -151113.54     -149261.26    
     13200   755.51967      51874.598      6724.9433      48.731617      2.3577398     -151070.28     -149282.14    
     13300   827.21736     -31760.078      6724.9433      48.731617      2.3577398     -151209.51     -149251.68    
     13400   806.56666     -19732.748      6724.9433      48.731617      2.3577398     -151075.1      -149166.15    
     13500   845.46514      21083.057      6724.9433      48.731617      2.3577398     -151128.38     -149127.36    
     13600   792.51319      67985.657      6724.9433      48.731617      2.3577398     -151135.52     -149259.83    
     13700   796.71178      81268.178      6724.9433      48.731617      2.3577398     -151217.8      -149332.17    
     13800   772.66355     -17294.626      6724.9433      48.731617      2.3577398     -151182.93     -149354.22    
     13900   800.13974     -12369.093      6724.9433      48.731617      2.3577398     -151174.54     -149280.8     
     14000   790.33713      34417.936      6724.9433      48.731617      2.3577398     -151038.44     -149167.9     
     14100   809.4202       57003.439      6724.9433      48.731617      2.3577398     -151088.06     -149172.35    
     14200   801.08415     -29017.515      6724.9433      48.731617      2.3577398     -151134.24     -149238.26    
     14300   786.99451      16620.319      6724.9433      48.731617      2.3577398     -151161.02     -149298.39    
     14400   765.66549      53253.118      6724.9433      48.731617      2.3577398     -151123.51     -149311.36    
     14500   802.48221      51220.222      6724.9433      48.731617      2.3577398     -151214.25     -149314.96    
     14600   773.44928     -4126.3721      6724.9433      48.731617      2.3577398     -151243.91     -149413.34    
     14700   775.91408      2679.3793      6724.9433      48.731617      2.3577398     -151263.52     -149427.12    
     14800   786.00675      35433.271      6724.9433      48.731617      2.3577398     -151183.28     -149322.99    
     14900   815.57841     -14816.007      6724.9433      48.731617      2.3577398     -151156.27     -149225.98    
     15000   786.74125      103085.74      6724.9433      48.731617      2.3577398     -151070.96     -149208.93    
     15100   806.91833      32602.155      6724.9433      48.731617      2.3577398     -151114.08     -149204.29    
     15200   803.12796      21691.304      6724.9433      48.731617      2.3577398     -151160.28     -149259.47    
     15300   792.85669     -8030.7829      6724.9433      48.731617      2.3577398     -151237.92     -149361.42    
     15400   742.04375      81034.871      6724.9433      48.731617      2.3577398     -151161.34     -149405.1     
     15500   798.53202      17472.983      6724.9433      48.731617      2.3577398     -151206.16     -149316.22    
     15600   795.07599      16529.312      6724.9433      48.731617      2.3577398     -151096.89     -149215.13    
     15700   792.06585      15844.909      6724.9433      48.731617      2.3577398     -151105.25     -149230.61    
     15800   819.61612      25275.323      6724.9433      48.731617      2.3577398     -151214.94     -149275.1     
     15900   788.80611     -15087.824      6724.9433      48.731617      2.3577398     -151253.54     -149386.62    
     16000   775.26048      18755.607      6724.9433      48.731617      2.3577398     -151210.58     -149375.72    
     16100   798.00683      32158.226      6724.9433      48.731617      2.3577398     -151157.99     -149269.29    
     16200   802.45776      34418.365      6724.9433      48.731617      2.3577398     -151135.22     -149236       
     16300   771.25108      56299.604      6724.9433      48.731617      2.3577398     -151092.9      -149267.53    
     16400   809.27938     -10568.783      6724.9433      48.731617      2.3577398     -151211.65     -149296.28    
     16500   797.79952      23533.283      6724.9433      48.731617      2.3577398     -151193.26     -149305.06    
     16600   810.50088      12696.988      6724.9433      48.731617      2.3577398     -151183.69     -149265.43    
     16700   806.82967      7324.4145      6724.9433      48.731617      2.3577398     -151103.11     -149193.53    
     16800   828.29251      46353.37       6724.9433      48.731617      2.3577398     -151106.14     -149145.77    
     16900   838.15803      17410.09       6724.9433      48.731617      2.3577398     -151108.4      -149124.68    
     17000   815.17496     -21888.156      6724.9433      48.731617      2.3577398     -151184.23     -149254.91    
     17100   809.98176     -15906.25       6724.9433      48.731617      2.3577398     -151264.96     -149347.92    
     17200   764.50526      1208.6992      6724.9433      48.731617      2.3577398     -151190.12     -149380.71    
     17300   821.46854      21710.164      6724.9433      48.731617      2.3577398     -151231.15     -149286.93    
     17400   785.93693      36071.849      6724.9433      48.731617      2.3577398     -151074.56     -149214.43    
     17500   824.11597     -4806.7081      6724.9433      48.731617      2.3577398     -151159.29     -149208.81    
     17600   792.32567     -28270.497      6724.9433      48.731617      2.3577398     -151130.96     -149255.71    
     17700   802.10944      17130.938      6724.9433      48.731617      2.3577398     -151179.08     -149280.67    
     17800   812.41113      26380.566      6724.9433      48.731617      2.3577398     -151222.75     -149299.97    
     17900   815.30385      47006.111      6724.9433      48.731617      2.3577398     -151219.33     -149289.69    
     18000   792.23701      33648.091      6724.9433      48.731617      2.3577398     -151126.01     -149250.97    
     18100   822.92347      28586.27       6724.9433      48.731617      2.3577398     -151153.22     -149205.55    
     18200   812.96714      29908.908      6724.9433      48.731617      2.3577398     -151122.04     -149197.94    
     18300   817.78278      64795.874      6724.9433      48.731617      2.3577398     -151203.97     -149268.47    
     18400   769.39921      64083.956      6724.9433      48.731617      2.3577398     -151164.61     -149343.63    
     18500   791.20149      10927.549      6724.9433      48.731617      2.3577398     -151199.5      -149326.91    
     18600   779.80234      37356.704      6724.9433      48.731617      2.3577398     -151049.07     -149203.46    
     18700   816.7783      -2667.5561      6724.9433      48.731617      2.3577398     -151049.36     -149116.24    
     18800   810.69867     -7868.8195      6724.9433      48.731617      2.3577398     -151108.59     -149189.86    
     18900   769.30661     -5654.2763      6724.9433      48.731617      2.3577398     -151092.83     -149272.06    
     19000   807.87198      23812.31       6724.9433      48.731617      2.3577398     -151173.53     -149261.49    
     19100   788.56874      17772.7        6724.9433      48.731617      2.3577398     -151104.91     -149238.56    
     19200   803.66308      17386.136      6724.9433      48.731617      2.3577398     -151135.35     -149233.27    
     19300   826.53016      19630.221      6724.9433      48.731617      2.3577398     -151248.45     -149292.25    
     19400   758.84649      48841.591      6724.9433      48.731617      2.3577398     -151176.54     -149380.53    
     19500   749.40716      36659.863      6724.9433      48.731617      2.3577398     -151142.29     -149368.62    
     19600   811.73713      34145.901      6724.9433      48.731617      2.3577398     -151167.43     -149246.24    
     19700   806.08192      40582.689      6724.9433      48.731617      2.3577398     -151107.99     -149200.18    
     19800   831.90794      8520.5879      6724.9433      48.731617      2.3577398     -151173.74     -149204.82    
     19900   780.70007      17452.186      6724.9433      48.731617      2.3577398     -151155.85     -149308.11    
     20000   801.30948      10224.234      6724.9433      48.731617      2.3577398     -151275.46     -149378.95    
     20100   763.63677      66041.454      6724.9433      48.731617      2.3577398     -151165.23     -149357.88    
     20200   785.05205     -14703.625      6724.9433      48.731617      2.3577398     -151181.71     -149323.68    
     20300   771.43382      63232.953      6724.9433      48.731617      2.3577398     -151113.77     -149287.97    
     20400   807.629        15101.884      6724.9433      48.731617      2.3577398     -151133.68     -149222.22    
     20500   809.0532       42418.193      6724.9433      48.731617      2.3577398     -151131.38     -149216.55    
     20600   787.07148      39194.072      6724.9433      48.731617      2.3577398     -151211.39     -149348.57    
     20700   773.07418      60355.814      6724.9433      48.731617      2.3577398     -151212.16     -149382.47    
     20800   749.70372      43211.081      6724.9433      48.731617      2.3577398     -151097.75     -149323.38    
     20900   795.71984      49170.125      6724.9433      48.731617      2.3577398     -151135.11     -149251.83    
     21000   819.05551     -3511.6752      6724.9433      48.731617      2.3577398     -151189.43     -149250.92    
     21100   783.39222      26506.463      6724.9433      48.731617      2.3577398     -151163.59     -149309.48    
     21200   774.83047     -20571.282      6724.9433      48.731617      2.3577398     -151225.97     -149392.13    
     21300   767.55565     -4898.8705      6724.9433      48.731617      2.3577398     -151216.71     -149400.08    
     21400   791.77882     -19135.173      6724.9433      48.731617      2.3577398     -151114.17     -149240.22    
     21500   814.95473      2530.3237      6724.9433      48.731617      2.3577398     -151109.36     -149180.56    
     21600   773.19554      51316.257      6724.9433      48.731617      2.3577398     -151049.98     -149220.01    
     21700   762.65575      41539.101      6724.9433      48.731617      2.3577398     -151112.55     -149307.52    
     21800   780.25823      33810.535      6724.9433      48.731617      2.3577398     -151198.23     -149351.54    
     21900   801.0957       29633.065      6724.9433      48.731617      2.3577398     -151187.49     -149291.48    
     22000   834.58263      23641.775      6724.9433      48.731617      2.3577398     -151158.29     -149183.03    
     22100   834.10963     -13744.519      6724.9433      48.731617      2.3577398     -151118.28     -149144.14    
     22200   787.93769      11903.898      6724.9433      48.731617      2.3577398     -151102.36     -149237.49    
     22300   788.33059      56033.648      6724.9433      48.731617      2.3577398     -151166.98     -149301.19    
     22400   773.07692     -2912.3466      6724.9433      48.731617      2.3577398     -151125.26     -149295.57    
     22500   812.97842      44813.895      6724.9433      48.731617      2.3577398     -151190.93     -149266.8     
     22600   778.56938      27508.193      6724.9433      48.731617      2.3577398     -151068.96     -149226.27    
     22700   856.24928     -2606.9568      6724.9433      48.731617      2.3577398     -151142.57     -149116.03    
     22800   832.06137      46710.616      6724.9433      48.731617      2.3577398     -151099.59     -149130.3     
     22900   811.18943     -2786.3246      6724.9433      48.731617      2.3577398     -151152.39     -149232.5     
     23000   798.54285      33768.947      6724.9433      48.731617      2.3577398     -151198.66     -149308.7     
     23100   789.51693      41776.223      6724.9433      48.731617      2.3577398     -151165.93     -149297.33    
     23200   800.83868      48673.894      6724.9433      48.731617      2.3577398     -151146.28     -149250.88    
     23300   798.40753      26477.397      6724.9433      48.731617      2.3577398     -151003.56     -149113.92    
     23400   842.05818      65328.901      6724.9433      48.731617      2.3577398     -151039.86     -149046.91    
     23500   836.29238      6738.0494      6724.9433      48.731617      2.3577398     -151111.63     -149132.32    
     23600   830.78984      25853.95       6724.9433      48.731617      2.3577398     -151166.47     -149200.18    
     23700   791.74711      57113.538      6724.9433      48.731617      2.3577398     -151136.38     -149262.51    
     23800   795.20378      44900.725      6724.9433      48.731617      2.3577398     -151198.94     -149316.88    
     23900   750.09699      39985.115      6724.9433      48.731617      2.3577398     -151124.02     -149348.72    
     24000   800.52403      51521.724      6724.9433      48.731617      2.3577398     -151136.11     -149241.46    
     24100   805.25645      68316.285      6724.9433      48.731617      2.3577398     -151049.08     -149143.22    
     24200   833.30467      10537.983      6724.9433      48.731617      2.3577398     -151157.46     -149185.23    
     24300   797.59359      32621.454      6724.9433      48.731617      2.3577398     -151170.21     -149282.49    
     24400   790.50796      53706.426      6724.9433      48.731617      2.3577398     -151181.89     -149310.94    
     24500   786.75389     -3106.7314      6724.9433      48.731617      2.3577398     -151149.46     -149287.4     
     24600   824.46287      39143.659      6724.9433      48.731617      2.3577398     -151192.65     -149241.34    
     24700   802.42724     -935.18276      6724.9433      48.731617      2.3577398     -151048.26     -149149.1     
     24800   840.65846      56197.963      6724.9433      48.731617      2.3577398     -151038.62     -149048.98    
     24900   832.12167      50761.922      6724.9433      48.731617      2.3577398     -151069.97     -149100.54    
     25000   807.85775      57959.251      6724.9433      48.731617      2.3577398     -151146.52     -149234.51    
     25100   802.44157      19353.229      6724.9433      48.731617      2.3577398     -151173.29     -149274.1     
     25200   799.32362      1114.8099      6724.9433      48.731617      2.3577398     -151214.44     -149322.63    
     25300   782.21254     -35678.362      6724.9433      48.731617      2.3577398     -151223.41     -149372.1     
     25400   771.28058      15109.933      6724.9433      48.731617      2.3577398     -151226.1      -149400.66    
     25500   807.81181      48976.946      6724.9433      48.731617      2.3577398     -151225.38     -149313.49    
     25600   820.73779      61669.767      6724.9433      48.731617      2.3577398     -151149.75     -149207.26    
     25700   778.11663      64255.176      6724.9433      48.731617      2.3577398     -151040.32     -149198.7     
     25800   827.26396     -16717.861      6724.9433      48.731617      2.3577398     -151161.71     -149203.77    
     25900   824.53341      2778.3255      6724.9433      48.731617      2.3577398     -151253.58     -149302.1     
     26000   766.19987     -35179.352      6724.9433      48.731617      2.3577398     -151212.17     -149398.76    
     26100   749.40652      51131.071      6724.9433      48.731617      2.3577398     -151136.11     -149362.44    
     26200   804.95399      4227.3654      6724.9433      48.731617      2.3577398     -151163.05     -149257.91    
     26300   808.05709      43996.044      6724.9433      48.731617      2.3577398     -151158.68     -149246.2     
     26400   784.29584      18404.904      6724.9433      48.731617      2.3577398     -151127.3      -149271.06    
     26500   784.97039      32899.695      6724.9433      48.731617      2.3577398     -151142.86     -149285.02    
     26600   801.40975      74340.947      6724.9433      48.731617      2.3577398     -151151.5      -149254.75    
     26700   820.37655      32461.367      6724.9433      48.731617      2.3577398     -151082.21     -149140.58    
     26800   843.24883     -5181.3372      6724.9433      48.731617      2.3577398     -151119.1      -149123.33    
     26900   787.03393      10390.288      6724.9433      48.731617      2.3577398     -151122.77     -149260.04    
     27000   783.43444      21295.146      6724.9433      48.731617      2.3577398     -151145.64     -149291.44    
     27100   796.15476      62150.945      6724.9433      48.731617      2.3577398     -151169.23     -149284.92    
     27200   819.89537      18678.305      6724.9433      48.731617      2.3577398     -151232.69     -149292.19    
     27300   808.4522      -17373.115      6724.9433      48.731617      2.3577398     -151217.87     -149304.46    
     27400   771.88501      68136.77       6724.9433      48.731617      2.3577398     -151090.03     -149263.16    
     27500   791.56091      3717.72        6724.9433      48.731617      2.3577398     -151042.8      -149169.36    
     27600   842.57354      22605.058      6724.9433      48.731617      2.3577398     -151148.23     -149154.06    
     27700   808.66209      6103.0015      6724.9433      48.731617      2.3577398     -151195.74     -149281.83    
     27800   765.60795      19035.487      6724.9433      48.731617      2.3577398     -151130.62     -149318.61    
     27900   767.70977      55557.904      6724.9433      48.731617      2.3577398     -151119.1      -149302.11    
     28000   799.50778      25881.288      6724.9433      48.731617      2.3577398     -151145.65     -149253.41    
     28100   808.89727      5116.3166      6724.9433      48.731617      2.3577398     -151090.62     -149176.15    
     28200   865.27582      4610.2455      6724.9433      48.731617      2.3577398     -151146.9      -149098.99    
     28300   840.51946      30093.62       6724.9433      48.731617      2.3577398     -151121.59     -149132.28    
     28400   778.22661     -17299.954      6724.9433      48.731617      2.3577398     -151113.03     -149271.15    
     28500   790.54317      40927.092      6724.9433      48.731617      2.3577398     -151190.86     -149319.83    
     28600   808.65459      51547.078      6724.9433      48.731617      2.3577398     -151215.17     -149301.28    
     28700   836.85082      983.60314      6724.9433      48.731617      2.3577398     -151179.85     -149199.22    
     28800   821.27469      23966.154      6724.9433      48.731617      2.3577398     -151057.62     -149113.86    
     28900   811.00888     -24602.062      6724.9433      48.731617      2.3577398     -151115.15     -149195.68    
     29000   791.02835      60053.496      6724.9433      48.731617      2.3577398     -151220.96     -149348.78    
     29100   774.10723      32805.128      6724.9433      48.731617      2.3577398     -151174.66     -149342.53    
     29200   815.23059     -15494.507      6724.9433      48.731617      2.3577398     -151161.27     -149231.81    
     29300   800.5172       29567.733      6724.9433      48.731617      2.3577398     -151099.58     -149204.95    
     29400   794.24685     -3740.7998      6724.9433      48.731617      2.3577398     -151145.35     -149265.56    
     29500   793.73133      10764.627      6724.9433      48.731617      2.3577398     -151261.77     -149383.19    
     29600   755.45662      34062.644      6724.9433      48.731617      2.3577398     -151193.19     -149405.21    
     29700   765.34837     -30143.701      6724.9433      48.731617      2.3577398     -151159.85     -149348.45    
     29800   788.86503      38229.572      6724.9433      48.731617      2.3577398     -151170.39     -149303.33    
     29900   820.81476      15072.647      6724.9433      48.731617      2.3577398     -151185.63     -149242.95    
     30000   812.70996      27883.564      6724.9433      48.731617      2.3577398     -151138.31     -149214.81    
     30100   809.13046      76939.886      6724.9433      48.731617      2.3577398     -151176.42     -149261.4     
     30200   770.65645      34816.74       6724.9433      48.731617      2.3577398     -151212.37     -149388.41    
     30300   810.51391      7761.1795      6724.9433      48.731617      2.3577398     -151287.44     -149369.15    
     30400   811.44681      52649.491      6724.9433      48.731617      2.3577398     -151214.25     -149293.75    
     30500   799.06226     -8347.6225      6724.9433      48.731617      2.3577398     -151125.02     -149233.83    
     30600   824.25404      6637.3996      6724.9433      48.731617      2.3577398     -151177.78     -149226.96    
     30700   794.74889      60889.477      6724.9433      48.731617      2.3577398     -151144.84     -149263.86    
     30800   806.1765       56827.194      6724.9433      48.731617      2.3577398     -151181.5      -149273.47    
     30900   800.82495      10349.782      6724.9433      48.731617      2.3577398     -151156.64     -149261.27    
     31000   818.30412      12090.878      6724.9433      48.731617      2.3577398     -151183.18     -149246.45    
     31100   799.99639      43444.031      6724.9433      48.731617      2.3577398     -151183.33     -149289.93    
     31200   779.11469      61186.521      6724.9433      48.731617      2.3577398     -151145.44     -149301.46    
     31300   779.69141      27102.069      6724.9433      48.731617      2.3577398     -151160.49     -149315.14    
     31400   767.30678     -16315.423      6724.9433      48.731617      2.3577398     -151147.21     -149331.18    
     31500   794.17148      6770.6425      6724.9433      48.731617      2.3577398     -151188.58     -149308.96    
     31600   764.3074       29543.019      6724.9433      48.731617      2.3577398     -151049.37     -149240.44    
     31700   832.20234      66081.235      6724.9433      48.731617      2.3577398     -151103.72     -149134.09    
     31800   826.94502      30444.126      6724.9433      48.731617      2.3577398     -151113.47     -149156.29    
     31900   852.87904      3142.3243      6724.9433      48.731617      2.3577398     -151285.56     -149267       
     32000   815.12715     -11704.798      6724.9433      48.731617      2.3577398     -151252.89     -149323.67    
     32100   779.61037      52113.376      6724.9433      48.731617      2.3577398     -151155.45     -149310.3     
     32200   797.68536      31657.208      6724.9433      48.731617      2.3577398     -151129.09     -149241.16    
     32300   831.00855      33089.435      6724.9433      48.731617      2.3577398     -151119.14     -149152.33    
     32400   800.7926       48617.928      6724.9433      48.731617      2.3577398     -151081.8      -149186.51    
     32500   759.61382      78942.053      6724.9433      48.731617      2.3577398     -151152.51     -149354.68    
     32600   783.06937      42742.987      6724.9433      48.731617      2.3577398     -151222.1      -149368.76    
     32700   761.31973     -9248.5438      6724.9433      48.731617      2.3577398     -151106.87     -149305.01    
     32800   797.67902     -32466.883      6724.9433      48.731617      2.3577398     -151110.53     -149222.61    
     32900   789.82569      42987.903      6724.9433      48.731617      2.3577398     -151099.36     -149230.03    
     33000   796.55071      4476.2447      6724.9433      48.731617      2.3577398     -151210.97     -149325.72    
     33100   768.71131      26249.024      6724.9433      48.731617      2.3577398     -151260.1      -149440.74    
     33200   770.98906     -53197.955      6724.9433      48.731617      2.3577398     -151218.95     -149394.2     
     33300   827.17044      76714.265      6724.9433      48.731617      2.3577398     -151273.37     -149315.65    
     33400   777.58873      88051.22       6724.9433      48.731617      2.3577398     -151114.72     -149274.35    
     33500   817.58836      19339.661      6724.9433      48.731617      2.3577398     -151175.76     -149240.72    
     33600   818.75136     -763.70847      6724.9433      48.731617      2.3577398     -151207.5      -149269.71    
     33700   791.32005      17634.815      6724.9433      48.731617      2.3577398     -151297.42     -149424.55    
     33800   764.83019      52452.421      6724.9433      48.731617      2.3577398     -151282.24     -149472.07    
     33900   794.48804     -5807.594       6724.9433      48.731617      2.3577398     -151253.89     -149373.52    
     34000   791.69734      51940.618      6724.9433      48.731617      2.3577398     -151159.74     -149285.98    
     34100   817.94574      51947.094      6724.9433      48.731617      2.3577398     -151162.74     -149226.85    
     34200   835.69955      18727.201      6724.9433      48.731617      2.3577398     -151191.61     -149213.71    
     34300   773.9922       66973.117      6724.9433      48.731617      2.3577398     -151133.74     -149301.89    
     34400   801.20513      86538.761      6724.9433      48.731617      2.3577398     -151310.6      -149414.34    
     34500   774.0594       58283.273      6724.9433      48.731617      2.3577398     -151221.18     -149389.16    
     34600   778.44916     -10502.752      6724.9433      48.731617      2.3577398     -151132.09     -149289.68    
     34700   838.36172      35371.371      6724.9433      48.731617      2.3577398     -151235.18     -149250.98    
     34800   792.78839      60633.93       6724.9433      48.731617      2.3577398     -151151.8      -149275.46    
     34900   797.48016      162.88004      6724.9433      48.731617      2.3577398     -151214.26     -149326.82    
     35000   811.24167      84457.858      6724.9433      48.731617      2.3577398     -151316.38     -149396.36    
     35100   772.99066     -22735.349      6724.9433      48.731617      2.3577398     -151271.52     -149442.04    
     35200   794.82584      48314.638      6724.9433      48.731617      2.3577398     -151202.55     -149321.38    
     35300   808.82636      39357.598      6724.9433      48.731617      2.3577398     -151140.82     -149226.52    
     35400   817.54034      21754.414      6724.9433      48.731617      2.3577398     -151159.8      -149224.88    
     35500   814.19085      29452.235      6724.9433      48.731617      2.3577398     -151197.9      -149270.9     
     35600   780.17219      43198.189      6724.9433      48.731617      2.3577398     -151208        -149361.51    
     35700   764.71068     -20021.706      6724.9433      48.731617      2.3577398     -151227.02     -149417.13    
     35800   788.82076      81985.148      6724.9433      48.731617      2.3577398     -151219.6      -149352.64    
     35900   816.3771       20650.507      6724.9433      48.731617      2.3577398     -151149.25     -149217.08    
     36000   805.62131      11770.069      6724.9433      48.731617      2.3577398     -151088.57     -149181.86    
     36100   770.79142      14506.663      6724.9433      48.731617      2.3577398     -151056.19     -149231.91    
     36200   806.35874      35721.794      6724.9433      48.731617      2.3577398     -151248.41     -149339.95    
     36300   796.65163      42598.084      6724.9433      48.731617      2.3577398     -151222.53     -149337.04    
     36400   790.7426      -15439.425      6724.9433      48.731617      2.3577398     -151165.92     -149294.42    
     36500   780.7909       48505.49       6724.9433      48.731617      2.3577398     -151102.28     -149254.33    
     36600   841.37647      91356.121      6724.9433      48.731617      2.3577398     -151202.95     -149211.61    
     36700   812.76197     -10312.092      6724.9433      48.731617      2.3577398     -151145.8      -149222.19    
     36800   766.51226      61041.782      6724.9433      48.731617      2.3577398     -151143.47     -149329.32    
     36900   749.05972     -2760.7971      6724.9433      48.731617      2.3577398     -151160.92     -149388.08    
     37000   813.49409      59125.25       6724.9433      48.731617      2.3577398     -151234.3      -149308.95    
     37100   819.05488      49984.078      6724.9433      48.731617      2.3577398     -151145.67     -149207.16    
     37200   811.82341      52779.004      6724.9433      48.731617      2.3577398     -151133.46     -149212.07    
     37300   768.78245     -3257.4719      6724.9433      48.731617      2.3577398     -151082.44     -149262.92    
     37400   771.12127      38646.343      6724.9433      48.731617      2.3577398     -151136.82     -149311.76    
     37500   780.2868       21843.761      6724.9433      48.731617      2.3577398     -151231.72     -149384.97    
     37600   783.08918      54573.213      6724.9433      48.731617      2.3577398     -151291.14     -149437.75    
     37700   790.32157      28919.804      6724.9433      48.731617      2.3577398     -151218.74     -149348.23    
     37800   811.39655      30250.306      6724.9433      48.731617      2.3577398     -151152.05     -149231.67    
     37900   836.70792      82532.303      6724.9433      48.731617      2.3577398     -151181.75     -149201.46    
     38000   803.42604      97951.364      6724.9433      48.731617      2.3577398     -151146.04     -149244.52    
     38100   785.03302     -13542.085      6724.9433      48.731617      2.3577398     -151198.98     -149341       
     38200   753.40956      2222.5011      6724.9433      48.731617      2.3577398     -151186.21     -149403.06    
     38300   802.63092      43127.557      6724.9433      48.731617      2.3577398     -151222.28     -149322.64    
     38400   840.10319      7848.2092      6724.9433      48.731617      2.3577398     -151150.15     -149161.83    
     38500   803.53534      21100.587      6724.9433      48.731617      2.3577398     -151081.16     -149179.39    
     38600   816.72434      58354.489      6724.9433      48.731617      2.3577398     -151183.83     -149250.84    
     38700   790.16847      21745.916      6724.9433      48.731617      2.3577398     -151192.84     -149322.7     
     38800   803.45409      21498.574      6724.9433      48.731617      2.3577398     -151203.7      -149302.12    
     38900   834.28274      48854.208      6724.9433      48.731617      2.3577398     -151128.64     -149154.09    
     39000   844.14234     -25810.409      6724.9433      48.731617      2.3577398     -151100.44     -149102.55    
     39100   806.97907      79219.028      6724.9433      48.731617      2.3577398     -151117.48     -149207.55    
     39200   769.81388      34502.264      6724.9433      48.731617      2.3577398     -151109.93     -149287.96    
     39300   794.77926      86101.536      6724.9433      48.731617      2.3577398     -151195.68     -149314.63    
     39400   814.73354     -3457.6267      6724.9433      48.731617      2.3577398     -151213.1      -149284.82    
     39500   835.01141      28618.244      6724.9433      48.731617      2.3577398     -151129.12     -149152.84    
     39600   805.43499      15619.752      6724.9433      48.731617      2.3577398     -151049.04     -149142.76    
     39700   806.95011      15565.162      6724.9433      48.731617      2.3577398     -151165.76     -149255.9     
     39800   803.49717      7818.2554      6724.9433      48.731617      2.3577398     -151198.85     -149297.16    
     39900   759.58951     -4985.2057      6724.9433      48.731617      2.3577398     -151119.09     -149321.32    
     40000   798.33953      38481.563      6724.9433      48.731617      2.3577398     -151200.16     -149310.68    
     40100   811.73592      44032.834      6724.9433      48.731617      2.3577398     -151178.35     -149257.16    
     40200   831.4243       48740.976      6724.9433      48.731617      2.3577398     -151116.24     -149148.45    
     40300   806.99185      12040.112      6724.9433      48.731617      2.3577398     -151047.62     -149137.66    
     40400   809.12798     -1949.0748      6724.9433      48.731617      2.3577398     -151171.98     -149256.97    
     40500   793.29623      2369.5207      6724.9433      48.731617      2.3577398     -151208.52     -149330.98    
     40600   792.59597      20379.525      6724.9433      48.731617      2.3577398     -151196.8      -149320.91    
     40700   825.43766      39848.575      6724.9433      48.731617      2.3577398     -151226.75     -149273.13    
     40800   799.28812     -32497.303      6724.9433      48.731617      2.3577398     -151140.87     -149249.15    
     40900   821.88457      66780.487      6724.9433      48.731617      2.3577398     -151116.82     -149171.61    
     41000   838.69534      60426.308      6724.9433      48.731617      2.3577398     -151095.96     -149110.96    
     41100   822.0581       54849.336      6724.9433      48.731617      2.3577398     -151170.31     -149224.7     
     41200   789.25169      49976.943      6724.9433      48.731617      2.3577398     -151187.72     -149319.74    
     41300   823.80733      14241.988      6724.9433      48.731617      2.3577398     -151243.18     -149293.42    
     41400   806.12435     -5886.532       6724.9433      48.731617      2.3577398     -151121.64     -149213.73    
     41500   828.15379      121676.95      6724.9433      48.731617      2.3577398     -151141.99     -149181.95    
     41600   810.78605     -4821.0371      6724.9433      48.731617      2.3577398     -151180.41     -149261.47    
     41700   777.88043      14623.789      6724.9433      48.731617      2.3577398     -151224.78     -149383.72    
     41800   759.50431      11217.032      6724.9433      48.731617      2.3577398     -151164.68     -149367.12    
     41900   795.91043      32458.525      6724.9433      48.731617      2.3577398     -151164.16     -149280.43    
     42000   767.48065      8142.7842      6724.9433      48.731617      2.3577398     -151006.79     -149190.35    
     42100   802.45302     -7931.9436      6724.9433      48.731617      2.3577398     -151058.33     -149159.11    
     42200   793.98424      95327.022      6724.9433      48.731617      2.3577398     -151072.49     -149193.32    
     42300   806.75849      50046.147      6724.9433      48.731617      2.3577398     -151127.57     -149218.16    
     42400   763.59209      24976.4        6724.9433      48.731617      2.3577398     -151098.56     -149291.32    
     42500   772.67858      84965.198      6724.9433      48.731617      2.3577398     -151191.8      -149363.05    
     42600   816.6455       3205.3152      6724.9433      48.731617      2.3577398     -151254.08     -149321.27    
     42700   822.9841       15370.987      6724.9433      48.731617      2.3577398     -151113.11     -149165.31    
     42800   814.45093      63130.732      6724.9433      48.731617      2.3577398     -151113.22     -149185.61    
     42900   776.87058      54442.874      6724.9433      48.731617      2.3577398     -151111.3      -149272.63    
     43000   784.37455      36269.873      6724.9433      48.731617      2.3577398     -151183.16     -149326.73    
     43100   801.31119      27733.629      6724.9433      48.731617      2.3577398     -151253.88     -149357.37    
     43200   795.7834      -2831.1783      6724.9433      48.731617      2.3577398     -151225.85     -149342.42    
     43300   817.83085      79679.63       6724.9433      48.731617      2.3577398     -151260.26     -149324.64    
     43400   784.21921     -18104.972      6724.9433      48.731617      2.3577398     -151172.83     -149316.76    
     43500   788.4148      -8227.259       6724.9433      48.731617      2.3577398     -151165.68     -149299.69    
     43600   806.99227      9818.7399      6724.9433      48.731617      2.3577398     -151113.81     -149203.85    
     43700   797.48231      25365.515      6724.9433      48.731617      2.3577398     -150987.03     -149099.58    
     43800   814.20315      29043.432      6724.9433      48.731617      2.3577398     -151058.56     -149131.53    
     43900   808.23064     -22019.236      6724.9433      48.731617      2.3577398     -151167.83     -149254.94    
     44000   800.80239      68899.841      6724.9433      48.731617      2.3577398     -151169.29     -149273.98    
     44100   811.22707      31504.06       6724.9433      48.731617      2.3577398     -151201.71     -149281.73    
     44200   804.75461     -30408.77       6724.9433      48.731617      2.3577398     -151173.77     -149269.1     
     44300   828.70723      24621.831      6724.9433      48.731617      2.3577398     -151179.52     -149218.17    
     44400   800.16897      7751.9098      6724.9433      48.731617      2.3577398     -151108.03     -149214.22    
     44500   789.55185      29299.399      6724.9433      48.731617      2.3577398     -151162.63     -149293.94    
     44600   805.37705      85393.339      6724.9433      48.731617      2.3577398     -151284.56     -149378.42    
     44700   790.68914      61154.752      6724.9433      48.731617      2.3577398     -151244.14     -149372.77    
     44800   823.18681      2331.863       6724.9433      48.731617      2.3577398     -151184.9      -149236.61    
     44900   832.86929     -38601.683      6724.9433      48.731617      2.3577398     -151177.28     -149206.08    
     45000   823.08507      75667.545      6724.9433      48.731617      2.3577398     -151209.09     -149261.05    
     45100   787.66798      26973.825      6724.9433      48.731617      2.3577398     -151182.5      -149318.28    
     45200   783.03081      34240.153      6724.9433      48.731617      2.3577398     -151158.77     -149305.52    
     45300   811.31906     -18580.636      6724.9433      48.731617      2.3577398     -151101.36     -149181.16    
     45400   826.39061     -17658.904      6724.9433      48.731617      2.3577398     -151073.58     -149117.71    
     45500   808.90787      38788.412      6724.9433      48.731617      2.3577398     -151097.04     -149182.55    
     45600   776.9568       41109.693      6724.9433      48.731617      2.3577398     -151109.48     -149270.6     
     45700   812.17008      59966.038      6724.9433      48.731617      2.3577398     -151176.72     -149254.5     
     45800   806.61052     -8810.7697      6724.9433      48.731617      2.3577398     -151173.98     -149264.92    
     45900   774.3878      -11782.492      6724.9433      48.731617      2.3577398     -151132.95     -149300.15    
     46000   767.81363      36211.591      6724.9433      48.731617      2.3577398     -151165.24     -149348.01    
     46100   795.33495      25753.201      6724.9433      48.731617      2.3577398     -151247.68     -149365.31    
     46200   785.06959      32267.179      6724.9433      48.731617      2.3577398     -151116.87     -149258.8     
     46300   784.07609      39531.505      6724.9433      48.731617      2.3577398     -151034.85     -149179.12    
     46400   834.84224      13357.526      6724.9433      48.731617      2.3577398     -151157.51     -149181.63    
     46500   782.68871     -5773.7761      6724.9433      48.731617      2.3577398     -151139.77     -149287.33    
     46600   754.52611      34014.875      6724.9433      48.731617      2.3577398     -151117.31     -149331.53    
     46700   760.19043     -84073.65       6724.9433      48.731617      2.3577398     -151131.28     -149332.09    
     46800   804.36063      22980.539      6724.9433      48.731617      2.3577398     -151197.54     -149293.8     
     46900   778.7059       53994.484      6724.9433      48.731617      2.3577398     -151130.1      -149287.09    
     47000   790.32353      64419.114      6724.9433      48.731617      2.3577398     -151142.61     -149272.11    
     47100   806.07125      55006.468      6724.9433      48.731617      2.3577398     -151083.54     -149175.76    
     47200   816.61617      57147.196      6724.9433      48.731617      2.3577398     -151061.65     -149128.91    
     47300   798.78522      40776.8        6724.9433      48.731617      2.3577398     -151127.34     -149236.8     
     47400   794.2478       14360.787      6724.9433      48.731617      2.3577398     -151187.19     -149307.4     
     47500   792.6166       26815.81       6724.9433      48.731617      2.3577398     -151171.91     -149295.98    
     47600   803.31075      11950.807      6724.9433      48.731617      2.3577398     -151156.76     -149255.52    
     47700   842.59552      45492.466      6724.9433      48.731617      2.3577398     -151221.37     -149227.15    
     47800   798.40971      51149.308      6724.9433      48.731617      2.3577398     -151043.83     -149154.18    
     47900   844.04468      60571.943      6724.9433      48.731617      2.3577398     -151125.5      -149127.84    
     48000   780.74472      56027.205      6724.9433      48.731617      2.3577398     -151078.77     -149230.94    
     48100   802.60731     -5911.2658      6724.9433      48.731617      2.3577398     -151211.71     -149312.13    
     48200   799.13479      74605.854      6724.9433      48.731617      2.3577398     -151233.39     -149342.02    
     48300   804.26852      42082.209      6724.9433      48.731617      2.3577398     -151234.07     -149330.55    
     48400   804.47628      9674.9854      6724.9433      48.731617      2.3577398     -151157.23     -149253.22    
     48500   833.48626     -391.11004      6724.9433      48.731617      2.3577398     -151040.57     -149067.9     
     48600   818.47505      52144.078      6724.9433      48.731617      2.3577398     -151047.61     -149110.48    
     48700   800.93187      14992.799      6724.9433      48.731617      2.3577398     -151116.35     -149220.74    
     48800   765.01037      15174.081      6724.9433      48.731617      2.3577398     -151104.3      -149293.7     
     48900   813.77392      15025.537      6724.9433      48.731617      2.3577398     -151245.16     -149319.15    
     49000   785.71809      23148.372      6724.9433      48.731617      2.3577398     -151193.53     -149333.92    
     49100   840.74566      36322.545      6724.9433      48.731617      2.3577398     -151205        -149215.16    
     49200   830.3448       31184.007      6724.9433      48.731617      2.3577398     -151127.18     -149161.95    
     49300   816.48233     -2679.9453      6724.9433      48.731617      2.3577398     -151173.98     -149241.56    
     49400   798.95568      23000.465      6724.9433      48.731617      2.3577398     -151219.72     -149328.78    
     49500   767.46775      57665.084      6724.9433      48.731617      2.3577398     -151143.47     -149327.06    
     49600   802.41173      35049.557      6724.9433      48.731617      2.3577398     -151146.75     -149247.63    
     49700   839.17579     -10122.555      6724.9433      48.731617      2.3577398     -151174.67     -149188.54    
     49800   816.50463      66964.296      6724.9433      48.731617      2.3577398     -151133.68     -149201.21    
     49900   803.33917     -4654.438       6724.9433      48.731617      2.3577398     -151144.21     -149242.9     
     50000   817.83615      32648.874      6724.9433      48.731617      2.3577398     -151200.52     -149264.9     
     50100   813.56661      26055.392      6724.9433      48.731617      2.3577398     -151222.42     -149296.9     
     50200   762.08782      33877.902      6724.9433      48.731617      2.3577398     -151222        -149418.32    
     50300   757.40397      44721.011      6724.9433      48.731617      2.3577398     -151214.63     -149422.04    
     50400   786.59155      73189.972      6724.9433      48.731617      2.3577398     -151201.65     -149339.97    
     50500   783.34626      3710.5669      6724.9433      48.731617      2.3577398     -151144.27     -149290.27    
     50600   786.51728     -472.26055      6724.9433      48.731617      2.3577398     -151090.95     -149229.45    
     50700   841.80055      68685.716      6724.9433      48.731617      2.3577398     -151173.18     -149180.84    
     50800   809.86791      40788.33       6724.9433      48.731617      2.3577398     -151160.26     -149243.5     
     50900   798.587        9980.9391      6724.9433      48.731617      2.3577398     -151268.67     -149378.61    
     51000   785.26828      16339.146      6724.9433      48.731617      2.3577398     -151248.47     -149389.93    
     51100   799.55815     -39534.502      6724.9433      48.731617      2.3577398     -151210.88     -149318.51    
     51200   835.1181       24071.141      6724.9433      48.731617      2.3577398     -151201.68     -149225.15    
     51300   819.60539      46251.826      6724.9433      48.731617      2.3577398     -151166.31     -149226.5     
     51400   763.74387      48928.063      6724.9433      48.731617      2.3577398     -151190.45     -149382.85    
     51500   755.98596      24345.517      6724.9433      48.731617      2.3577398     -151191.8      -149402.56    
     51600   775.65768      24111.477      6724.9433      48.731617      2.3577398     -151120.5      -149284.7     
     51700   793.61968     -8884.879       6724.9433      48.731617      2.3577398     -151102.71     -149224.4     
     51800   797.8973       50747.91       6724.9433      48.731617      2.3577398     -151102.16     -149213.72    
     51900   783.64515      18162.128      6724.9433      48.731617      2.3577398     -151137.15     -149282.45    
     52000   786.52803      56925.754      6724.9433      48.731617      2.3577398     -151248.49     -149386.97    
     52100   785.263        14829.162      6724.9433      48.731617      2.3577398     -151231.3      -149372.77    
     52200   822.94246      25727.862      6724.9433      48.731617      2.3577398     -151208.81     -149261.1     
     52300   832.15552     -48579.552      6724.9433      48.731617      2.3577398     -151201.65     -149232.14    
     52400   810.80202      42515.953      6724.9433      48.731617      2.3577398     -151182.19     -149263.21    
     52500   796.29344      32756.244      6724.9433      48.731617      2.3577398     -151205.98     -149321.34    
     52600   791.31349      9048.9091      6724.9433      48.731617      2.3577398     -151251.54     -149378.69    
     52700   778.02487     -16610.634      6724.9433      48.731617      2.3577398     -151186.56     -149345.16    
     52800   823.98863      46832.041      6724.9433      48.731617      2.3577398     -151152.83     -149202.65    
     52900   797.32797      58690.233      6724.9433      48.731617      2.3577398     -151045.98     -149158.89    
     53000   804.64927      4097.9477      6724.9433      48.731617      2.3577398     -151130.1      -149225.68    
     53100   793.23031     -43800.522      6724.9433      48.731617      2.3577398     -151188.83     -149311.44    
     53200   793.87634      3311.1535      6724.9433      48.731617      2.3577398     -151207.31     -149328.4     
     53300   791.61228      39967.094      6724.9433      48.731617      2.3577398     -151183.87     -149310.31    
     53400   796.85162      23579.253      6724.9433      48.731617      2.3577398     -151092.05     -149206.09    
     53500   815.4503       40304.468      6724.9433      48.731617      2.3577398     -151069.98     -149140.01    
     53600   804.06473      44008.053      6724.9433      48.731617      2.3577398     -151094.24     -149191.21    
     53700   791.85458      17937.935      6724.9433      48.731617      2.3577398     -151118.92     -149244.78    
     53800   815.97932      7475.4799      6724.9433      48.731617      2.3577398     -151213.84     -149282.61    
     53900   784.70912      27557.563      6724.9433      48.731617      2.3577398     -151182.84     -149325.61    
     54000   766.86013     -20346.036      6724.9433      48.731617      2.3577398     -151218.21     -149403.23    
     54100   790.33878      20017.323      6724.9433      48.731617      2.3577398     -151314.39     -149443.85    
     54200   800.62303      93950.147      6724.9433      48.731617      2.3577398     -151222.3      -149327.42    
     54300   806.44804      68728.1        6724.9433      48.731617      2.3577398     -151152.29     -149243.62    
     54400   791.39302     -745.22651      6724.9433      48.731617      2.3577398     -151112.04     -149239       
     54500   808.75676      87546.194      6724.9433      48.731617      2.3577398     -151225.63     -149311.5     
     54600   803.35472      40601.7        6724.9433      48.731617      2.3577398     -151294.89     -149393.54    
     54700   779.9938      -13547.066      6724.9433      48.731617      2.3577398     -151310.16     -149464.1     
     54800   737.54115      38092.51       6724.9433      48.731617      2.3577398     -151254.17     -149508.58    
     54900   794.11343      311.42937      6724.9433      48.731617      2.3577398     -151272.73     -149393.25    
     55000   812.28182      44455.799      6724.9433      48.731617      2.3577398     -151197.66     -149275.18    
     55100   823.51097      22674.727      6724.9433      48.731617      2.3577398     -151185.55     -149236.49    
     55200   819.49242      2204.105       6724.9433      48.731617      2.3577398     -151207.32     -149267.77    
     55300   755.06133      4982.8931      6724.9433      48.731617      2.3577398     -151155.06     -149368.01    
     55400   763.07979      71488.372      6724.9433      48.731617      2.3577398     -151224.87     -149418.84    
     55500   800.93743      41428.759      6724.9433      48.731617      2.3577398     -151199.77     -149304.14    
     55600   785.4967       14568.646      6724.9433      48.731617      2.3577398     -151064.95     -149205.87    
     55700   820.14024     -9357.4655      6724.9433      48.731617      2.3577398     -151167.8      -149226.72    
     55800   800.1778       45610.83       6724.9433      48.731617      2.3577398     -151210.72     -149316.89    
     55900   790.28         109351.45      6724.9433      48.731617      2.3577398     -151232.5      -149362.09    
     56000   821.39692      30586.774      6724.9433      48.731617      2.3577398     -151230.96     -149286.9     
     56100   832.67351      12723.074      6724.9433      48.731617      2.3577398     -151109.9      -149139.16    
     56200   811.77798      16169.679      6724.9433      48.731617      2.3577398     -151106.44     -149185.15    
     56300   800.22442      9875.4924      6724.9433      48.731617      2.3577398     -151163.83     -149269.89    
     56400   783.15777      73679.682      6724.9433      48.731617      2.3577398     -151212.05     -149358.5     
     56500   790.29797      5033.9387      6724.9433      48.731617      2.3577398     -151229.24     -149358.79    
     56600   788.50607      44282.7        6724.9433      48.731617      2.3577398     -151180.79     -149314.59    
     56700   838.53054      45216.143      6724.9433      48.731617      2.3577398     -151216.65     -149232.05    
     56800   810.70637      73980.933      6724.9433      48.731617      2.3577398     -150982.54     -149063.79    
     56900   813.60558      42737.881      6724.9433      48.731617      2.3577398     -150988.36     -149062.74    
     57000   838.83993      66679.799      6724.9433      48.731617      2.3577398     -151164.76     -149179.42    
     57100   796.37682      16460.854      6724.9433      48.731617      2.3577398     -151155.21     -149270.37    
     57200   779.73485      26009.786      6724.9433      48.731617      2.3577398     -151172.82     -149327.37    
     57300   797.76067      69075.885      6724.9433      48.731617      2.3577398     -151236.6      -149348.49    
     57400   778.09621     -2572.8607      6724.9433      48.731617      2.3577398     -151128.03     -149286.46    
     57500   825.15437      41460.227      6724.9433      48.731617      2.3577398     -151097.66     -149144.71    
     57600   794.28473      8177.5537      6724.9433      48.731617      2.3577398     -151067.95     -149188.06    
     57700   789.04797      36833.003      6724.9433      48.731617      2.3577398     -151140.71     -149273.22    
     57800   806.15207     -11968.828      6724.9433      48.731617      2.3577398     -151219.62     -149311.65    
     57900   824.83602      38045.147      6724.9433      48.731617      2.3577398     -151260.82     -149308.63    
     58000   811.17653      50830.567      6724.9433      48.731617      2.3577398     -151261.23     -149341.37    
     58100   771.44939      39034.649      6724.9433      48.731617      2.3577398     -151295.97     -149470.13    
     58200   735.90359      61738.166      6724.9433      48.731617      2.3577398     -151177.13     -149435.42    
     58300   778.96455      77775.912      6724.9433      48.731617      2.3577398     -151152.58     -149308.95    
     58400   816.67225      53514.233      6724.9433      48.731617      2.3577398     -151170.36     -149237.49    
     58500   813.84747     -3285.46        6724.9433      48.731617      2.3577398     -151154.44     -149228.26    
     58600   801.88564     -15578.494      6724.9433      48.731617      2.3577398     -151167.78     -149269.91    
     58700   764.91038      23518.297      6724.9433      48.731617      2.3577398     -151196.09     -149385.73    
     58800   743.5431       62524.874      6724.9433      48.731617      2.3577398     -151157.55     -149397.76    
     58900   760.10922      13972.36       6724.9433      48.731617      2.3577398     -151097.47     -149298.47    
     59000   809.28521     -9082.9332      6724.9433      48.731617      2.3577398     -151136.4      -149221.02    
     59100   802.90043      9878.655       6724.9433      48.731617      2.3577398     -151145.65     -149245.38    
     59200   797.78176      75924.879      6724.9433      48.731617      2.3577398     -151166.46     -149278.3     
     59300   778.47776      12705.164      6724.9433      48.731617      2.3577398     -151141.63     -149299.15    
     59400   799.546        49788.148      6724.9433      48.731617      2.3577398     -151177.67     -149285.33    
     59500   826.57905      15131.766      6724.9433      48.731617      2.3577398     -151151.1      -149194.79    
     59600   802.28246      74407.263      6724.9433      48.731617      2.3577398     -151045.64     -149146.82    
     59700   814.26257      30054.466      6724.9433      48.731617      2.3577398     -151167.42     -149240.25    
     59800   799.39183     -32217.513      6724.9433      48.731617      2.3577398     -151236.32     -149344.35    
     59900   787.30281      6870.2382      6724.9433      48.731617      2.3577398     -151207.1      -149343.74    
     60000   816.33524      103694.62      6724.9433      48.731617      2.3577398     -151205.4      -149273.32    
     60100   808.54618      7617.3624      6724.9433      48.731617      2.3577398     -151118.62     -149204.98    
     60200   794.47353     -27020.293      6724.9433      48.731617      2.3577398     -151105.48     -149225.15    
     60300   769.92629      13028.292      6724.9433      48.731617      2.3577398     -151216.72     -149394.49    
     60400   766.6738       72370.06       6724.9433      48.731617      2.3577398     -151229.63     -149415.09    
     60500   783.02374      5688.3914      6724.9433      48.731617      2.3577398     -151200.46     -149347.23    
     60600   801.31918      41033.888      6724.9433      48.731617      2.3577398     -151160.01     -149263.48    
     60700   817.11761      15924.846      6724.9433      48.731617      2.3577398     -151160.52     -149226.6     
     60800   818.88382      66380.397      6724.9433      48.731617      2.3577398     -151165.74     -149227.63    
     60900   809.64094      56462.181      6724.9433      48.731617      2.3577398     -151226.86     -149310.63    
     61000   789.24239      21350.803      6724.9433      48.731617      2.3577398     -151269.82     -149401.87    
     61100   777.6231      -21586.358      6724.9433      48.731617      2.3577398     -151206.73     -149366.28    
     61200   802.52532      39920.779      6724.9433      48.731617      2.3577398     -151158.13     -149258.75    
     61300   810.92472      32632.389      6724.9433      48.731617      2.3577398     -151115.59     -149196.32    
     61400   811.98074      31081.267      6724.9433      48.731617      2.3577398     -151134.9      -149213.14    
     61500   783.23001      50156.268      6724.9433      48.731617      2.3577398     -151130.4      -149276.68    
     61600   815.2973      -4238.8003      6724.9433      48.731617      2.3577398     -151211.17     -149281.56    
     61700   801.9924       76942.835      6724.9433      48.731617      2.3577398     -151170.88     -149272.75    
     61800   802.24713      9806.7733      6724.9433      48.731617      2.3577398     -151183.32     -149284.59    
     61900   806.43776      48700.994      6724.9433      48.731617      2.3577398     -151184.32     -149275.67    
     62000   786.05401      33486.267      6724.9433      48.731617      2.3577398     -151123.43     -149263.03    
     62100   801.17949      55638.904      6724.9433      48.731617      2.3577398     -151131.18     -149234.97    
     62200   829.41245      15769.083      6724.9433      48.731617      2.3577398     -151153.42     -149190.39    
     62300   798.88679     -3022.0256      6724.9433      48.731617      2.3577398     -151151.37     -149260.59    
     62400   782.66195      85111.985      6724.9433      48.731617      2.3577398     -151209.74     -149357.37    
     62500   782.01979      43650.377      6724.9433      48.731617      2.3577398     -151180.95     -149330.09    
     62600   835.58017      75739.025      6724.9433      48.731617      2.3577398     -151202.43     -149224.81    
     62700   797.04419     -30575.909      6724.9433      48.731617      2.3577398     -151105.4      -149218.98    
     62800   816.72656     -6496.7241      6724.9433      48.731617      2.3577398     -151135.49     -149202.49    
     62900   826.79976      65050.646      6724.9433      48.731617      2.3577398     -151203.25     -149246.41    
     63000   728.59615      71720.135      6724.9433      48.731617      2.3577398     -151115.21     -149390.79    
     63100   808.07972      13605.603      6724.9433      48.731617      2.3577398     -151254.24     -149341.71    
     63200   817.94147     -19313.222      6724.9433      48.731617      2.3577398     -151201.63     -149265.75    
     63300   802.56539      50696.028      6724.9433      48.731617      2.3577398     -151128.89     -149229.41    
     63400   799.49744      19513.522      6724.9433      48.731617      2.3577398     -151119.31     -149227.09    
     63500   796.53472      27504.899      6724.9433      48.731617      2.3577398     -151224.79     -149339.58    
     63600   786.33171     -15450.793      6724.9433      48.731617      2.3577398     -151282.72     -149421.66    
     63700   777.51842     -8195.3449      6724.9433      48.731617      2.3577398     -151259.7      -149419.49    
     63800   802.53388      77091.506      6724.9433      48.731617      2.3577398     -151197.43     -149298.02    
     63900   796.46643      23863.001      6724.9433      48.731617      2.3577398     -151116.04     -149230.99    
     64000   823.64486     -22939.25       6724.9433      48.731617      2.3577398     -151172.06     -149222.69    
     64100   800.53796      36457.27       6724.9433      48.731617      2.3577398     -151177.6      -149282.91    
     64200   760.03894      37849.242      6724.9433      48.731617      2.3577398     -151149.96     -149351.12    
     64300   761.44335      74740.118      6724.9433      48.731617      2.3577398     -151232.58     -149430.43    
     64400   790.55861      5927.2721      6724.9433      48.731617      2.3577398     -151297.62     -149426.55    
     64500   839.94132      42856.871      6724.9433      48.731617      2.3577398     -151277.8      -149289.86    
[...]
    384200   807.48688      31379.547      6724.9433      48.731617      2.3577398     -151227.65     -149316.52    
    384300   818.73443      47044.266      6724.9433      48.731617      2.3577398     -151136.24     -149198.48    
    384400   824.0367       56622.49       6724.9433      48.731617      2.3577398     -151178.53     -149228.23    
    384500   795.94491      17752.957      6724.9433      48.731617      2.3577398     -151185.15     -149301.34    
    384600   760.78565      49737.49       6724.9433      48.731617      2.3577398     -151138.56     -149337.96    
    384700   799.53454      851.55134      6724.9433      48.731617      2.3577398     -151241.94     -149349.63    
    384800   789.05966      41934.186      6724.9433      48.731617      2.3577398     -151259.14     -149391.62    
    384900   738.95702      48408.078      6724.9433      48.731617      2.3577398     -151248.99     -149500.05    
    385000   805.86654     -16159.776      6724.9433      48.731617      2.3577398     -151395.47     -149488.18    
    385100   803.84525      4682.7682      6724.9433      48.731617      2.3577398     -151266.79     -149364.28    
    385200   791.44337      23832.332      6724.9433      48.731617      2.3577398     -151184.48     -149311.32    
    385300   784.61612      32558.459      6724.9433      48.731617      2.3577398     -151186.89     -149329.89    
    385400   793.63102      90391.2        6724.9433      48.731617      2.3577398     -151208.32     -149329.98    
    385500   773.7249       3062.0524      6724.9433      48.731617      2.3577398     -151175.57     -149344.34    
    385600   795.61217      1753.6407      6724.9433      48.731617      2.3577398     -151284.7      -149401.68    
    385700   790.83141      39269.243      6724.9433      48.731617      2.3577398     -151307.1      -149435.39    
    385800   784.28433      42130.218      6724.9433      48.731617      2.3577398     -151259.4      -149403.19    
    385900   802.09755      5575.6751      6724.9433      48.731617      2.3577398     -151196.6      -149298.23    
    386000   811.15594      31138.446      6724.9433      48.731617      2.3577398     -151173.85     -149254.04    
    386100   802.51265     -1946.2966      6724.9433      48.731617      2.3577398     -151197.59     -149298.23    
    386200   789.47725      39820.003      6724.9433      48.731617      2.3577398     -151318.06     -149449.55    
    386300   779.74118      7633.1582      6724.9433      48.731617      2.3577398     -151294.92     -149449.46    
    386400   812.10859      65241.052      6724.9433      48.731617      2.3577398     -151292.02     -149369.96    
    386500   787.91032      44428.879      6724.9433      48.731617      2.3577398     -151159.42     -149294.63    
    386600   791.54502      11341.958      6724.9433      48.731617      2.3577398     -151150.07     -149276.67    
    386700   816.96752      69792.765      6724.9433      48.731617      2.3577398     -151215.54     -149281.97    
    386800   797.94257      19411.142      6724.9433      48.731617      2.3577398     -151201.56     -149313.02    
    386900   804.05061      44019.141      6724.9433      48.731617      2.3577398     -151264.58     -149361.58    
    387000   809.44947     -7848.6341      6724.9433      48.731617      2.3577398     -151336.11     -149420.34    
    387100   794.01495     -14004.999      6724.9433      48.731617      2.3577398     -151315.09     -149435.85    
    387200   785.94109      83787.531      6724.9433      48.731617      2.3577398     -151171.65     -149311.51    
    387300   827.56623      92053.881      6724.9433      48.731617      2.3577398     -151202.78     -149244.13    
    387400   822.64456     -16409.089      6724.9433      48.731617      2.3577398     -151237.74     -149290.73    
    387500   797.15937     -9311.7488      6724.9433      48.731617      2.3577398     -151265.29     -149378.6     
    387600   794.89483     -11682.067      6724.9433      48.731617      2.3577398     -151303.86     -149422.53    
    387700   760.99018      26201.762      6724.9433      48.731617      2.3577398     -151271.73     -149470.65    
    387800   760.51358      9499.9286      6724.9433      48.731617      2.3577398     -151339.53     -149539.58    
    387900   775.99387      8546.3629      6724.9433      48.731617      2.3577398     -151282.92     -149446.32    
    388000   795.73518     -2126.9553      6724.9433      48.731617      2.3577398     -151226.76     -149343.44    
    388100   813.94762      77597.064      6724.9433      48.731617      2.3577398     -151223.53     -149297.11    
    388200   785.62123     -69330.287      6724.9433      48.731617      2.3577398     -151214.16     -149354.78    
    388300   778.37111      261.99475      6724.9433      48.731617      2.3577398     -151299.22     -149457       
    388400   754.81704      35309.638      6724.9433      48.731617      2.3577398     -151234.81     -149448.33    
    388500   779.10529      54765.843      6724.9433      48.731617      2.3577398     -151223.25     -149379.29    
    388600   773.33087     -12424.053      6724.9433      48.731617      2.3577398     -151178.93     -149348.64    
    388700   777.7801      -17390.2        6724.9433      48.731617      2.3577398     -151173.68     -149332.86    
    388800   800.2583      -16919.449      6724.9433      48.731617      2.3577398     -151230.15     -149336.13    
    388900   807.94165      40520.733      6724.9433      48.731617      2.3577398     -151356.21     -149444       
    389000   773.3321       106159.61      6724.9433      48.731617      2.3577398     -151327.29     -149497       
    389100   793.85474      28320.395      6724.9433      48.731617      2.3577398     -151274.33     -149395.47    
    389200   801.47274      37216.165      6724.9433      48.731617      2.3577398     -151219.13     -149322.24    
    389300   802.30021     -8702.6804      6724.9433      48.731617      2.3577398     -151221.98     -149323.12    
    389400   802.62317     -14165.812      6724.9433      48.731617      2.3577398     -151242.59     -149342.97    
    389500   762.07096      42905.907      6724.9433      48.731617      2.3577398     -151209.3      -149405.66    
    389600   761.54383      59282.366      6724.9433      48.731617      2.3577398     -151272.84     -149470.45    
    389700   795.14049      7513.0307      6724.9433      48.731617      2.3577398     -151337.45     -149455.54    
    389800   795.04021      19103          6724.9433      48.731617      2.3577398     -151207.04     -149325.36    
    389900   838.64117      22765.267      6724.9433      48.731617      2.3577398     -151248.83     -149263.96    
    390000   799.33149      28602.039      6724.9433      48.731617      2.3577398     -151189.43     -149297.6     
    390100   808.46647      92936.414      6724.9433      48.731617      2.3577398     -151289.3      -149375.85    
    390200   800.87228      54754.161      6724.9433      48.731617      2.3577398     -151326.17     -149430.69    
    390300   763.19692      8301.4996      6724.9433      48.731617      2.3577398     -151299.03     -149492.73    
    390400   753.078       -5850.0888      6724.9433      48.731617      2.3577398     -151273.37     -149491.01    
    390500   794.35103     -15209.653      6724.9433      48.731617      2.3577398     -151254.51     -149374.47    
    390600   805.4618       58446.912      6724.9433      48.731617      2.3577398     -151210.19     -149303.85    
    390700   821.72709     -8279.0377      6724.9433      48.731617      2.3577398     -151211.53     -149266.7     
    390800   797.81738      68479.504      6724.9433      48.731617      2.3577398     -151168.55     -149280.31    
    390900   788.13943     -29075.835      6724.9433      48.731617      2.3577398     -151262.91     -149397.57    
    391000   793.4753       40049.507      6724.9433      48.731617      2.3577398     -151337.5      -149459.53    
    391100   815.3006       15165.232      6724.9433      48.731617      2.3577398     -151383.99     -149454.37    
    391200   802.81487      28066.373      6724.9433      48.731617      2.3577398     -151231.07     -149331       
    391300   809.89051      18405.422      6724.9433      48.731617      2.3577398     -151161.17     -149244.35    
    391400   823.4631       3475.2581      6724.9433      48.731617      2.3577398     -151227.37     -149278.42    
    391500   792.47888     -11274.659      6724.9433      48.731617      2.3577398     -151232.43     -149356.82    
    391600   771.00879      56068.076      6724.9433      48.731617      2.3577398     -151224.91     -149400.11    
    391700   788.63225      9561.0869      6724.9433      48.731617      2.3577398     -151297.83     -149431.33    
    391800   766.89527      17396.348      6724.9433      48.731617      2.3577398     -151332.4      -149517.34    
    391900   824.62289      77431.791      6724.9433      48.731617      2.3577398     -151395.81     -149444.12    
    392000   811.21329      74990.262      6724.9433      48.731617      2.3577398     -151247.99     -149328.04    
    392100   801.5924      -2433.9853      6724.9433      48.731617      2.3577398     -151187.6      -149290.43    
    392200   838.24741     -7490.8656      6724.9433      48.731617      2.3577398     -151298.43     -149314.5     
    392300   786.36413      45439.577      6724.9433      48.731617      2.3577398     -151295.44     -149434.3     
    392400   780.58919      97327.408      6724.9433      48.731617      2.3577398     -151317.91     -149470.44    
    392500   802.71312      73809.314      6724.9433      48.731617      2.3577398     -151305.13     -149405.3     
    392600   791.57953     -4341.0165      6724.9433      48.731617      2.3577398     -151209.03     -149335.55    
    392700   786.36246     -5746.3881      6724.9433      48.731617      2.3577398     -151178.81     -149317.68    
    392800   755.57416      74826.311      6724.9433      48.731617      2.3577398     -151152.61     -149364.34    
    392900   793.64483     -23582.91       6724.9433      48.731617      2.3577398     -151245.18     -149366.81    
    393000   816.06686      24055.943      6724.9433      48.731617      2.3577398     -151268.24     -149336.81    
    393100   823.34133      7480.5134      6724.9433      48.731617      2.3577398     -151253.47     -149304.82    
    393200   805.14725      75390.157      6724.9433      48.731617      2.3577398     -151258.96     -149353.37    
    393300   759.84938      13586.909      6724.9433      48.731617      2.3577398     -151246.45     -149448.07    
    393400   788.21319      13794.476      6724.9433      48.731617      2.3577398     -151324.54     -149459.02    
    393500   816.95546      28160.836      6724.9433      48.731617      2.3577398     -151250.7      -149317.16    
    393600   823.10542     -2289.1957      6724.9433      48.731617      2.3577398     -151193.58     -149245.48    
    393700   783.57629      61830.507      6724.9433      48.731617      2.3577398     -151127.84     -149273.31    
    393800   781.00523      32977.16       6724.9433      48.731617      2.3577398     -151199.98     -149351.53    
    393900   753.51486     -36066.027      6724.9433      48.731617      2.3577398     -151208.34     -149424.95    
    394000   745.23049      6722.3743      6724.9433      48.731617      2.3577398     -151224.56     -149460.78    
    394100   750.96184      22524.365      6724.9433      48.731617      2.3577398     -151239.03     -149461.69    
    394200   781.19656      52028.201      6724.9433      48.731617      2.3577398     -151196.58     -149347.68    
    394300   789.77612      53605.844      6724.9433      48.731617      2.3577398     -151128.9      -149259.69    
    394400   808.78676     -7373.2089      6724.9433      48.731617      2.3577398     -151170.67     -149256.46    
    394500   829.69808     -15271.413      6724.9433      48.731617      2.3577398     -151329.41     -149365.71    
    394600   771.96221      32808.23       6724.9433      48.731617      2.3577398     -151259.54     -149432.49    
    394700   811.33803      19435.693      6724.9433      48.731617      2.3577398     -151305.48     -149385.23    
    394800   781.56089      48834.317      6724.9433      48.731617      2.3577398     -151189.64     -149339.87    
    394900   789.61702      9502.5642      6724.9433      48.731617      2.3577398     -151161.78     -149292.94    
    395000   827.81304      64883.384      6724.9433      48.731617      2.3577398     -151220.28     -149261.04    
    395100   814.3433       642.54733      6724.9433      48.731617      2.3577398     -151178.29     -149250.94    
    395200   823.44483      18946.5        6724.9433      48.731617      2.3577398     -151295.3      -149346.4     
    395300   761.7044       7193.8108      6724.9433      48.731617      2.3577398     -151230.66     -149427.89    
    395400   744.78092      60761.803      6724.9433      48.731617      2.3577398     -151143.81     -149381.09    
    395500   834.01509      45621.22       6724.9433      48.731617      2.3577398     -151239.17     -149265.25    
    395600   814.20455     -70604.51       6724.9433      48.731617      2.3577398     -151202.12     -149275.09    
    395700   784.93295      18934.432      6724.9433      48.731617      2.3577398     -151181.07     -149323.32    
    395800   776.79975      64370.111      6724.9433      48.731617      2.3577398     -151228.76     -149390.26    
    395900   754.00308      37312.421      6724.9433      48.731617      2.3577398     -151236.76     -149452.21    
    396000   788.51495     -23936.489      6724.9433      48.731617      2.3577398     -151351.74     -149485.51    
    396100   821.75902      7905.5312      6724.9433      48.731617      2.3577398     -151311.01     -149366.1     
    396200   830.06224      9392.5153      6724.9433      48.731617      2.3577398     -151263.32     -149298.76    
    396300   837.27371      51005.043      6724.9433      48.731617      2.3577398     -151269.12     -149287.49    
    396400   816.20274      37192.002      6724.9433      48.731617      2.3577398     -151250.46     -149318.7     
    396500   785.13773      49248.493      6724.9433      48.731617      2.3577398     -151286.54     -149428.31    
    396600   768.48454      21216.822      6724.9433      48.731617      2.3577398     -151295.25     -149476.43    
    396700   818.42507      45571.449      6724.9433      48.731617      2.3577398     -151322.85     -149385.83    
    396800   795.48457      87776.648      6724.9433      48.731617      2.3577398     -151191.81     -149309.08    
    396900   813.32295      22469.54       6724.9433      48.731617      2.3577398     -151221.25     -149296.31    
    397000   775.51012     -51006.682      6724.9433      48.731617      2.3577398     -151160.64     -149325.2     
    397100   806.59019      30506.923      6724.9433      48.731617      2.3577398     -151275.45     -149366.44    
    397200   772.11251      28706.037      6724.9433      48.731617      2.3577398     -151310.03     -149482.63    
    397300   769.76538      38306.82       6724.9433      48.731617      2.3577398     -151300.91     -149479.05    
    397400   763.87467      70145.195      6724.9433      48.731617      2.3577398     -151156.6      -149348.69    
    397500   812.93392     -7912.2037      6724.9433      48.731617      2.3577398     -151228.2      -149304.18    
    397600   820.9243      -6732.1176      6724.9433      48.731617      2.3577398     -151268.03     -149325.1     
    397700   790.98893      93200.214      6724.9433      48.731617      2.3577398     -151241        -149368.92    
    397800   761.98644      16751.918      6724.9433      48.731617      2.3577398     -151222.08     -149418.64    
    397900   764.50003      20529.231      6724.9433      48.731617      2.3577398     -151261.34     -149451.95    
    398000   774.20253     -20648.661      6724.9433      48.731617      2.3577398     -151248.17     -149415.81    
    398100   811.83902      9326.6061      6724.9433      48.731617      2.3577398     -151222.64     -149301.21    
    398200   799.78944      28889.976      6724.9433      48.731617      2.3577398     -151172.01     -149279.1     
    398300   773.40045      29328.385      6724.9433      48.731617      2.3577398     -151183.76     -149353.31    
    398400   786.31663      35325.059      6724.9433      48.731617      2.3577398     -151315.37     -149454.34    
    398500   758.91335     -19152.758      6724.9433      48.731617      2.3577398     -151368.17     -149572       
    398600   770.59395     -27519.83       6724.9433      48.731617      2.3577398     -151350.84     -149527.03    
    398700   786.04135     -4729.1849      6724.9433      48.731617      2.3577398     -151319.53     -149459.15    
    398800   812.50926      21794.265      6724.9433      48.731617      2.3577398     -151285.29     -149362.28    
    398900   809.08463     -4081.1716      6724.9433      48.731617      2.3577398     -151213.4      -149298.49    
    399000   775.69379      29270.908      6724.9433      48.731617      2.3577398     -151147.17     -149311.28    
    399100   782.2863      -7567.5772      6724.9433      48.731617      2.3577398     -151251.63     -149400.15    
    399200   766.02633      77805.337      6724.9433      48.731617      2.3577398     -151336.72     -149523.72    
    399300   760.14272     -12238.655      6724.9433      48.731617      2.3577398     -151321.3      -149522.22    
    399400   787.48314      16831.761      6724.9433      48.731617      2.3577398     -151300.41     -149436.62    
    399500   816.28969      251.14027      6724.9433      48.731617      2.3577398     -151325.21     -149393.24    
    399600   789.82883      86235.932      6724.9433      48.731617      2.3577398     -151222.39     -149353.05    
    399700   827.95174      17408.807      6724.9433      48.731617      2.3577398     -151231.57     -149272.01    
    399800   807.46882     -9489.2256      6724.9433      48.731617      2.3577398     -151121.42     -149210.34    
    399900   799.87828      28069.016      6724.9433      48.731617      2.3577398     -151157.85     -149264.73    
    400000   792.50148      62146.443      6724.9433      48.731617      2.3577398     -151266.73     -149391.07    
    400011   767.34503      48943.365      6724.9433      48.731617      2.3577398     -151214.43     -149398.3     
Loop time of 14897.5 on 64 procs for 400000 steps with 795 atoms

Performance: 0.580 ns/day, 41.382 hours/ns, 26.850 timesteps/s
99.6% CPU use with 64 MPI tasks x 1 OpenMP threads

MPI task timing breakdown:
Section |  min time  |  avg time  |  max time  |%varavg| %total
---------------------------------------------------------------
Pair    | 7862.3     | 10852      | 13366      |1522.8 | 72.85
Neigh   | 83.784     | 117.6      | 141.88     | 158.0 |  0.79
Comm    | 234.35     | 2601.6     | 5140       |2889.2 | 17.46
Output  | 0.51733    | 0.62672    | 0.8811     |   8.7 |  0.00
Modify  | 1132.9     | 1322.6     | 1860.4     | 458.7 |  8.88
Other   |            | 2.694      |            |       |  0.02

Nlocal:        12.4219 ave          16 max           4 min
Histogram: 3 0 1 1 2 10 5 12 21 9
Nghost:        2134.41 ave        2405 max        1837 min
Histogram: 13 3 0 3 7 7 14 3 4 10
Neighs:        6950.16 ave        9699 max        1593 min
Histogram: 3 1 1 1 9 3 9 20 13 4

Total # of neighbors = 444810
Ave neighs/atom = 559.50943
Neighbor list builds = 11118
Dangerous builds = 0

write_data graphene_single_layer_ReaxFF_750_C_temp_800K.data ### MODIFY FILE NAME ###
System init for write_data ...
Total wall time: 4:08:19
