
# System definition
read_data graphene_single_layer_x-45_y-45_795_C.data ### MODIFY FILE NAME ###
Reading data file ...
  orthogonal box = (-1.4464652 -1.4423034 -1.42) to (47.285152 47.149102 1.42)
  8 by 8 by 1 MPI processor grid
  reading atoms ...
  795 atoms
  reading velocities ...
  795 velocities
  read_data CPU = 0.095 seconds

pair_style reax/c NULL
pair_coeff * * ffield.reax.cho C
Reading potential file ffield.reax.cho with DATE: 2011-02-18
fix qeq_reax all qeq/reax 1 0.0 10.0 1.0e-6 reax/c


# Minimization
timestep 0.25
min_style cg
thermo 100
thermo_style custom step temp press vol lx density pe etotal
dump 2 all custom 1000 graphene_single_layer_ReaxFF_795_C_temp_1300K.lammpstrj id type x y z ### MODIFY FILE NAME ###
minimize 1.0e-6 1.0e-6 100 1000

CITE-CITE-CITE-CITE-CITE-CITE-CITE-CITE-CITE-CITE-CITE-CITE-CITE

Your simulation uses code contributions which should be cited:

- pair reaxff command:

@Article{Aktulga12,
 author = {H. M. Aktulga, J. C. Fogarty, S. A. Pandit, A. Y. Grama},
 title = {Parallel reactive molecular dynamics: Numerical methods and algorithmic techniques},
 journal = {Parallel Computing},
 year =    2012,
 volume =  38,
 pages =   {245--259}
}

- fix qeq/reaxff command:

@Article{Aktulga12,
 author = {H. M. Aktulga, J. C. Fogarty, S. A. Pandit, A. Y. Grama},
 title = {Parallel reactive molecular dynamics: Numerical methods and algorithmic techniques},
 journal = {Parallel Computing},
 year =    2012,
 volume =  38,
 pages =   {245--259}
}

CITE-CITE-CITE-CITE-CITE-CITE-CITE-CITE-CITE-CITE-CITE-CITE-CITE

WARNING: Using 'neigh_modify every 1 delay 0 check yes' setting during minimization (src/min.cpp:187)
Neighbor list info ...
  update every 1 steps, delay 0 steps, check yes
  max neighbors/atom: 10000, page size: 100000
  master list distance cutoff = 10.4
  ghost atom cutoff = 10.4
  binsize = 5.2, bins = 10 10 1
  2 neighbor lists, perpetual/occasional/extra = 2 0 0
  (1) pair reax/c, perpetual
      attributes: half, newton off, ghost
      pair build: half/bin/newtoff/ghost
      stencil: full/ghost/bin/3d
      bin: standard
  (2) fix qeq/reax, perpetual, copy from (1)
      attributes: half, newton off
      pair build: copy
      stencil: none
      bin: none
Per MPI rank memory allocation (min/avg/max) = 36.37 | 41.41 | 47.38 Mbytes
   Step          Temp          Press          Volume           Lx          Density         PotEng         TotEng    
         0   923            34054.396      6724.9433      48.731617      2.3577398     -151766.67     -149582.14    
        11   923            35396.792      6724.9433      48.731617      2.3577398     -151904.55     -149720.03    
Loop time of 2.35902 on 64 procs for 11 steps with 795 atoms

99.7% CPU use with 64 MPI tasks x 1 OpenMP threads

Minimization stats:
  Stopping criterion = energy tolerance
  Energy initial, next-to-last, final = 
     -151766.666472543  -151904.508881892  -151904.547898656
  Force two-norm initial, final = 279.94165 356.09863
  Force max component initial, final = 137.99181 55.448555
  Final line search alpha, max atom move = 0.00038853166 0.021543519
  Iterations, force evaluations = 11 32

MPI task timing breakdown:
Section |  min time  |  avg time  |  max time  |%varavg| %total
---------------------------------------------------------------
Pair    | 0.78184    | 1.1927     | 1.9847     |  19.5 | 50.56
Neigh   | 0.010369   | 0.018543   | 0.027604   |   2.4 |  0.79
Comm    | 0.025523   | 0.61446    | 1.1663     |  26.7 | 26.05
Output  | 0          | 0          | 0          |   0.0 |  0.00
Modify  | 0.3172     | 0.32628    | 0.33441    |   0.6 | 13.83
Other   |            | 0.2071     |            |       |  8.78

Nlocal:        12.4219 ave          15 max          10 min
Histogram: 15 0 0 0 22 0 12 0 0 15
Nghost:        2194.12 ave        2559 max        1869 min
Histogram: 2 8 9 4 12 12 5 4 6 2
Neighs:        6807.34 ave        8856 max        4476 min
Histogram: 4 8 3 7 7 13 5 2 0 15

Total # of neighbors = 435670
Ave neighs/atom = 548.01258
Neighbor list builds = 1
Dangerous builds = 0

fix 1 all nvt temp 1300.0 1300.0 $(100.0*dt)  ### MODIFY INIT TEMP, FINAL TEMP ###
fix 1 all nvt temp 1300.0 1300.0 25  
run 400000
Per MPI rank memory allocation (min/avg/max) = 35.25 | 40.29 | 46.26 Mbytes
   Step          Temp          Press          Volume           Lx          Density         PotEng         TotEng    
        11   923            35396.792      6724.9433      48.731617      2.3577398     -151904.55     -149720.03    
       100   612.25958      27722.914      6724.9433      48.731617      2.3577398     -150930.09     -149481.02    
       200   632.56726      187656.61      6724.9433      48.731617      2.3577398     -150497.34     -149000.2     
       300   863.60489     -45830.295      6724.9433      48.731617      2.3577398     -150462.64     -148418.7     
       400   1065.4775     -24740.485      6724.9433      48.731617      2.3577398     -150231.65     -147709.91    
       500   1142.2615      19094.463      6724.9433      48.731617      2.3577398     -149728.18     -147024.72    
       600   1284.4858      55936.489      6724.9433      48.731617      2.3577398     -149476.48     -146436.41    
       700   1361.9263      12313.33       6724.9433      48.731617      2.3577398     -149244.46     -146021.11    
       800   1452.6869      33514.45       6724.9433      48.731617      2.3577398     -149414.41     -145976.25    
       900   1263.0675      110699.96      6724.9433      48.731617      2.3577398     -149370.77     -146381.39    
      1000   1268.9994      66897.563      6724.9433      48.731617      2.3577398     -149736.61     -146733.19    
      1100   1271.5912      17271.181      6724.9433      48.731617      2.3577398     -149884.08     -146874.53    
      1200   1265.848       44438.343      6724.9433      48.731617      2.3577398     -149826.11     -146830.15    
      1300   1335.6579      30184.824      6724.9433      48.731617      2.3577398     -149819.76     -146658.58    
      1400   1286.2565      5503.2899      6724.9433      48.731617      2.3577398     -149544.33     -146500.07    
      1500   1388.9065      87442.888      6724.9433      48.731617      2.3577398     -149677.35     -146390.14    
      1600   1312.0184      194.61153      6724.9433      48.731617      2.3577398     -149617.79     -146512.55    
      1700   1274.5672     -8513.5854      6724.9433      48.731617      2.3577398     -149725.95     -146709.35    
      1800   1276.0878      37679.915      6724.9433      48.731617      2.3577398     -149810.64     -146790.44    
      1900   1257.002       19537.456      6724.9433      48.731617      2.3577398     -149771.92     -146796.89    
      2000   1304.7386      30900.159      6724.9433      48.731617      2.3577398     -149813.99     -146725.99    
      2100   1323.7166     -35749.652      6724.9433      48.731617      2.3577398     -149786.54     -146653.62    
      2200   1307.7616      15969.813      6724.9433      48.731617      2.3577398     -149685.64     -146590.48    
      2300   1305.8875      117925.85      6724.9433      48.731617      2.3577398     -149679.86     -146589.13    
      2400   1298.6927      43190.691      6724.9433      48.731617      2.3577398     -149799.34     -146725.64    
      2500   1289.9008      7251.7883      6724.9433      48.731617      2.3577398     -149924.09     -146871.2     
      2600   1258.0642     -31890.334      6724.9433      48.731617      2.3577398     -149849.95     -146872.41    
      2700   1287.0573     -11200.961      6724.9433      48.731617      2.3577398     -149763.77     -146717.61    
      2800   1373.4957      13442.962      6724.9433      48.731617      2.3577398     -149794.83     -146544.09    
      2900   1272.737       47783.029      6724.9433      48.731617      2.3577398     -149598.37     -146586.1     
      3000   1302.8356     -12450.356      6724.9433      48.731617      2.3577398     -149753.62     -146670.12    
      3100   1286.7806     -14627.593      6724.9433      48.731617      2.3577398     -149851.29     -146805.78    
      3200   1224.7828     -36363.836      6724.9433      48.731617      2.3577398     -149804.18     -146905.41    
      3300   1327.2736      42525.753      6724.9433      48.731617      2.3577398     -149983.32     -146841.98    
      3400   1265.1829      56238.417      6724.9433      48.731617      2.3577398     -149687.86     -146693.47    
      3500   1366.5453      63104.623      6724.9433      48.731617      2.3577398     -149760.59     -146526.3     
      3600   1373.6862      40814.912      6724.9433      48.731617      2.3577398     -149749        -146497.81    
      3700   1253.2583      9903.3308      6724.9433      48.731617      2.3577398     -149608.88     -146642.71    
      3800   1295.0662     -755.44067      6724.9433      48.731617      2.3577398     -149857.92     -146792.81    
      3900   1271.4708      18979.042      6724.9433      48.731617      2.3577398     -149885.95     -146876.68    
      4000   1272.5815      6659.9589      6724.9433      48.731617      2.3577398     -149857.73     -146845.83    
      4100   1269.9018      40720.234      6724.9433      48.731617      2.3577398     -149676.96     -146671.41    
      4200   1346.1818      38272.842      6724.9433      48.731617      2.3577398     -149628.83     -146442.74    
      4300   1342.0149      69891.794      6724.9433      48.731617      2.3577398     -149684.95     -146508.72    
      4400   1291.9766      21032.462      6724.9433      48.731617      2.3577398     -149707.88     -146650.07    
      4500   1289.2235     -1410.8942      6724.9433      48.731617      2.3577398     -149798.16     -146746.88    
      4600   1287.8024      29594.086      6724.9433      48.731617      2.3577398     -149837.61     -146789.69    
      4700   1294.1366     -523.02971      6724.9433      48.731617      2.3577398     -149821.84     -146758.93    
      4800   1367.1093      21074.08       6724.9433      48.731617      2.3577398     -149810.93     -146575.31    
      4900   1340.626       30543.246      6724.9433      48.731617      2.3577398     -149648.6      -146475.66    
      5000   1335.4417      5421.6195      6724.9433      48.731617      2.3577398     -149753.25     -146592.58    
      5100   1291.3008      23206.404      6724.9433      48.731617      2.3577398     -149835.91     -146779.71    
      5200   1282.5132     -30540.699      6724.9433      48.731617      2.3577398     -149861.71     -146826.31    
      5300   1273.3466      15689.161      6724.9433      48.731617      2.3577398     -149834.73     -146821.02    
      5400   1313.3898      42449.808      6724.9433      48.731617      2.3577398     -149842.8      -146734.32    
      5500   1382.8165      12758.898      6724.9433      48.731617      2.3577398     -149807.83     -146535.03    
      5600   1357.8745      21160.664      6724.9433      48.731617      2.3577398     -149761.61     -146547.85    
      5700   1324.4992      46221.741      6724.9433      48.731617      2.3577398     -149907.59     -146772.81    
      5800   1330.2859      5088.8216      6724.9433      48.731617      2.3577398     -149996        -146847.53    
      5900   1263.113      -32491.455      6724.9433      48.731617      2.3577398     -149867.73     -146878.24    
      6000   1307.8014      36307.312      6724.9433      48.731617      2.3577398     -149889.72     -146794.46    
      6100   1352.8338     -864.43633      6724.9433      48.731617      2.3577398     -149838.44     -146636.61    
      6200   1366.3827      28699.574      6724.9433      48.731617      2.3577398     -149800.53     -146566.63    
      6300   1329.2021      8872.6471      6724.9433      48.731617      2.3577398     -149829.25     -146683.35    
      6400   1310.2347      98382.754      6724.9433      48.731617      2.3577398     -149982.85     -146881.84    
      6500   1290.3738     -50477.027      6724.9433      48.731617      2.3577398     -149958.86     -146904.85    
      6600   1271.6038     -801.81448      6724.9433      48.731617      2.3577398     -149790.55     -146780.96    
      6700   1302.0876      18125.055      6724.9433      48.731617      2.3577398     -149717.24     -146635.51    
      6800   1322.8345     -29120.976      6724.9433      48.731617      2.3577398     -149702.77     -146571.93    
      6900   1225.407       18909.783      6724.9433      48.731617      2.3577398     -149674.48     -146774.23    
      7000   1253.6019      5095.5322      6724.9433      48.731617      2.3577398     -149909.73     -146942.76    
      7100   1327.0759      4366.7643      6724.9433      48.731617      2.3577398     -150078.34     -146937.46    
      7200   1276.5281     -7686.4342      6724.9433      48.731617      2.3577398     -149887.85     -146866.61    
      7300   1317.5526     -7859.4941      6724.9433      48.731617      2.3577398     -149801.1      -146682.77    
      7400   1345.4126      62065.147      6724.9433      48.731617      2.3577398     -149864.02     -146679.75    
      7500   1277.7206      48623.816      6724.9433      48.731617      2.3577398     -149826.8      -146802.73    
      7600   1327.3574      27322.67       6724.9433      48.731617      2.3577398     -149973.69     -146832.15    
      7700   1366.0534      41560.54       6724.9433      48.731617      2.3577398     -150025.62     -146792.49    
      7800   1242.416       44778.848      6724.9433      48.731617      2.3577398     -149735.29     -146794.78    
      7900   1315.1064     -2332.2949      6724.9433      48.731617      2.3577398     -149943.81     -146831.27    
      8000   1274.2444      44584.497      6724.9433      48.731617      2.3577398     -149924.98     -146909.15    
      8100   1285.6566     -1988.1437      6724.9433      48.731617      2.3577398     -149937.18     -146894.33    
      8200   1265.5729      6749.5779      6724.9433      48.731617      2.3577398     -149737.39     -146742.08    
      8300   1384.9877      54265.262      6724.9433      48.731617      2.3577398     -149887.7      -146609.76    
      8400   1286.8027     -32497.301      6724.9433      48.731617      2.3577398     -149754.14     -146708.58    
      8500   1321.6543      51724.888      6724.9433      48.731617      2.3577398     -150002.33     -146874.28    
      8600   1248.9235      63843.28       6724.9433      48.731617      2.3577398     -149860.47     -146904.57    
      8700   1253.0896      75864.726      6724.9433      48.731617      2.3577398     -149761.26     -146795.49    
      8800   1342.6277      121001.43      6724.9433      48.731617      2.3577398     -149859.58     -146681.9     
      8900   1306.7959      8588.7548      6724.9433      48.731617      2.3577398     -149809.27     -146716.39    
      9000   1274.957      -10056.365      6724.9433      48.731617      2.3577398     -149938.37     -146920.85    
      9100   1262.3539     -21999.908      6724.9433      48.731617      2.3577398     -149964.78     -146977.09    
      9200   1230.5728      18937.973      6724.9433      48.731617      2.3577398     -149851.26     -146938.79    
      9300   1314.0412      74190.229      6724.9433      48.731617      2.3577398     -149945.99     -146835.96    
      9400   1276.5188     -54110.696      6724.9433      48.731617      2.3577398     -149809.46     -146788.24    
      9500   1322.1113      20330.981      6724.9433      48.731617      2.3577398     -149885.93     -146756.8     
      9600   1291.552      -807.27343      6724.9433      48.731617      2.3577398     -149848.52     -146791.72    
      9700   1230.6507      9717.3361      6724.9433      48.731617      2.3577398     -149898.07     -146985.41    
      9800   1275.7067      73958.249      6724.9433      48.731617      2.3577398     -150057.25     -147037.96    
      9900   1285.467       40083.304      6724.9433      48.731617      2.3577398     -149923.76     -146881.37    
     10000   1323.4044      7723.7375      6724.9433      48.731617      2.3577398     -149876.03     -146743.84    
     10100   1327.7283      28962.656      6724.9433      48.731617      2.3577398     -149876.96     -146734.54    
     10200   1345.4068      43532.852      6724.9433      48.731617      2.3577398     -149909.68     -146725.42    
     10300   1325.2131      55142.387      6724.9433      48.731617      2.3577398     -149939.68     -146803.21    
     10400   1253.4147      21714.263      6724.9433      48.731617      2.3577398     -149946.3      -146979.76    
     10500   1286.0181      49810.748      6724.9433      48.731617      2.3577398     -150035.2      -146991.5     
     10600   1331.6108     -67091.87       6724.9433      48.731617      2.3577398     -149947.09     -146795.48    
     10700   1342.8484     -3916.4083      6724.9433      48.731617      2.3577398     -149872.59     -146694.39    
     10800   1305.0724      16025.697      6724.9433      48.731617      2.3577398     -149817.69     -146728.89    
     10900   1330.8002      69051.96       6724.9433      48.731617      2.3577398     -149978.19     -146828.5     
     11000   1276.6906     -26246.294      6724.9433      48.731617      2.3577398     -149964.06     -146942.44    
     11100   1282.5811      14022.667      6724.9433      48.731617      2.3577398     -150082.6      -147047.04    
     11200   1248.5009      20197.794      6724.9433      48.731617      2.3577398     -149954.86     -146999.96    
     11300   1335.3993     -50148.17       6724.9433      48.731617      2.3577398     -149948.65     -146788.07    
     11400   1302.0213     -16253.621      6724.9433      48.731617      2.3577398     -149819.64     -146738.06    
     11500   1316.6726     -38278.177      6724.9433      48.731617      2.3577398     -149837.66     -146721.4     
     11600   1328.7682      51901.065      6724.9433      48.731617      2.3577398     -149802.94     -146658.06    
     11700   1357.885       60691.201      6724.9433      48.731617      2.3577398     -149750.71     -146536.92    
     11800   1340.6982      14871.878      6724.9433      48.731617      2.3577398     -149753.5      -146580.39    
     11900   1333.449       15881.121      6724.9433      48.731617      2.3577398     -149969        -146813.04    
     12000   1292.7171     -53494.216      6724.9433      48.731617      2.3577398     -149904.5      -146844.94    
     12100   1349.4172      82849.702      6724.9433      48.731617      2.3577398     -149962.39     -146768.64    
     12200   1314.9306      7720.1462      6724.9433      48.731617      2.3577398     -149760.64     -146648.51    
     12300   1352.1189      24403.175      6724.9433      48.731617      2.3577398     -149656.61     -146456.47    
     12400   1381.6933      21961.142      6724.9433      48.731617      2.3577398     -149635.39     -146365.25    
     12500   1289.6455     -19330.381      6724.9433      48.731617      2.3577398     -149742.94     -146690.65    
     12600   1331.8402      28189.231      6724.9433      48.731617      2.3577398     -149951.61     -146799.46    
     12700   1308.9531      55348.146      6724.9433      48.731617      2.3577398     -150004.59     -146906.61    
     12800   1232.9037     -12387.982      6724.9433      48.731617      2.3577398     -149836.71     -146918.72    
     12900   1256.3299      52908.973      6724.9433      48.731617      2.3577398     -149735.41     -146761.98    
     13000   1376.6324      15496.519      6724.9433      48.731617      2.3577398     -149895.51     -146637.35    
     13100   1384.865       4251.2605      6724.9433      48.731617      2.3577398     -150004.44     -146726.79    
     13200   1242.277       10293.705      6724.9433      48.731617      2.3577398     -149781.86     -146841.68    
     13300   1279.7639      39731.165      6724.9433      48.731617      2.3577398     -149856.31     -146827.42    
     13400   1307.3536      116269.42      6724.9433      48.731617      2.3577398     -149842.13     -146747.93    
     13500   1302.5806      22930.517      6724.9433      48.731617      2.3577398     -149675.1      -146592.2     
     13600   1311.9321     -29283.541      6724.9433      48.731617      2.3577398     -149735.59     -146630.55    
     13700   1291.5755     -22900.986      6724.9433      48.731617      2.3577398     -149942.55     -146885.7     
     13800   1295.1314     -6200.8059      6724.9433      48.731617      2.3577398     -150013.19     -146947.92    
     13900   1263.5934      43646.039      6724.9433      48.731617      2.3577398     -149849.03     -146858.41    
     14000   1299.9112      81298.211      6724.9433      48.731617      2.3577398     -149791.23     -146714.65    
     14100   1275.0543      18511.433      6724.9433      48.731617      2.3577398     -149671.11     -146653.35    
     14200   1325.5023      58782.29       6724.9433      48.731617      2.3577398     -149818.73     -146681.58    
     14300   1271.2144     -47945.858      6724.9433      48.731617      2.3577398     -149910.78     -146902.12    
     14400   1249.0639      50709.718      6724.9433      48.731617      2.3577398     -149948.68     -146992.44    
     14500   1284.3159      13468.088      6724.9433      48.731617      2.3577398     -149960.62     -146920.95    
     14600   1300.8827      38652.579      6724.9433      48.731617      2.3577398     -149820.7      -146741.81    
     14700   1350.0406     -14776.603      6724.9433      48.731617      2.3577398     -149900.25     -146705.02    
     14800   1301.5441      13715.266      6724.9433      48.731617      2.3577398     -149839.41     -146758.96    
     14900   1250.7975     -4798.8431      6724.9433      48.731617      2.3577398     -149755.29     -146794.95    
     15000   1308.8698      37080.674      6724.9433      48.731617      2.3577398     -149778.05     -146680.26    
     15100   1300.9273      48426.165      6724.9433      48.731617      2.3577398     -149573.91     -146494.92    
     15200   1348.459       9761.0269      6724.9433      48.731617      2.3577398     -149753.6      -146562.12    
     15300   1298.4395     -2748.7091      6724.9433      48.731617      2.3577398     -149781.44     -146708.34    
     15400   1344.7066     -36933.229      6724.9433      48.731617      2.3577398     -149932.43     -146749.82    
     15500   1312.8358      64713.344      6724.9433      48.731617      2.3577398     -149902.9      -146795.73    
     15600   1235.5416      61786.422      6724.9433      48.731617      2.3577398     -149848.28     -146924.04    
     15700   1236.5734      31443.681      6724.9433      48.731617      2.3577398     -149965.58     -147038.91    
     15800   1251.8911     -17170.671      6724.9433      48.731617      2.3577398     -149935.58     -146972.65    
     15900   1285.3252      1780.5421      6724.9433      48.731617      2.3577398     -149772.54     -146730.48    
     16000   1333.7845      41077.943      6724.9433      48.731617      2.3577398     -149826.73     -146669.98    
     16100   1338.8322     -43502.408      6724.9433      48.731617      2.3577398     -149923.87     -146755.17    
     16200   1245.6583      40683.136      6724.9433      48.731617      2.3577398     -149850.83     -146902.65    
     16300   1244.7022      51826.536      6724.9433      48.731617      2.3577398     -149894.84     -146948.92    
     16400   1328.8625      29030.293      6724.9433      48.731617      2.3577398     -149981.17     -146836.07    
     16500   1339.6182     -42082.871      6724.9433      48.731617      2.3577398     -149783.55     -146612.99    
     16600   1329.2742     -7036.0809      6724.9433      48.731617      2.3577398     -149769.98     -146623.91    
     16700   1293.3344      18756.289      6724.9433      48.731617      2.3577398     -149850.03     -146789.01    
     16800   1332.0112      9454.0985      6724.9433      48.731617      2.3577398     -150022.02     -146869.47    
     16900   1273.6139      82573.6        6724.9433      48.731617      2.3577398     -149881.12     -146866.78    
     17000   1308.5699      12609.857      6724.9433      48.731617      2.3577398     -149918        -146820.92    
     17100   1315.7615     -64.905189      6724.9433      48.731617      2.3577398     -149665.71     -146551.61    
     17200   1376.3301      28962.941      6724.9433      48.731617      2.3577398     -149738.69     -146481.24    
     17300   1343.002       29816.868      6724.9433      48.731617      2.3577398     -149881.89     -146703.32    
     17400   1264.1069      36598.652      6724.9433      48.731617      2.3577398     -149823.53     -146831.69    
     17500   1289.182       35551.183      6724.9433      48.731617      2.3577398     -149939.59     -146888.4     
     17600   1326.5097     -21519.554      6724.9433      48.731617      2.3577398     -149950.87     -146811.33    
     17700   1359.6052     -52463.538      6724.9433      48.731617      2.3577398     -149861.47     -146643.61    
     17800   1357.9537      35896.165      6724.9433      48.731617      2.3577398     -149706.41     -146492.46    
     17900   1334.6248      13797.363      6724.9433      48.731617      2.3577398     -149743.88     -146585.14    
     18000   1348.8386      44731.156      6724.9433      48.731617      2.3577398     -149891.02     -146698.64    
     18100   1313.1918     -75238.206      6724.9433      48.731617      2.3577398     -149862.26     -146754.25    
     18200   1328.5689     -18772.225      6724.9433      48.731617      2.3577398     -149960.31     -146815.9     
     18300   1297.322       67612.428      6724.9433      48.731617      2.3577398     -149950.79     -146880.34    
     18400   1238.434       30922.438      6724.9433      48.731617      2.3577398     -149813.23     -146882.15    
     18500   1320.143       8651.1922      6724.9433      48.731617      2.3577398     -149818.78     -146694.32    
     18600   1348.5189     -24412.227      6724.9433      48.731617      2.3577398     -149811.93     -146620.31    
     18700   1342.8112      36203.072      6724.9433      48.731617      2.3577398     -149897.33     -146719.22    
     18800   1285.5109      32381.896      6724.9433      48.731617      2.3577398     -149948.13     -146905.63    
     18900   1333.215       33255.034      6724.9433      48.731617      2.3577398     -150022.93     -146867.52    
     19000   1292.6441      49393.346      6724.9433      48.731617      2.3577398     -149832.24     -146772.86    
     19100   1351.7895     -1944.4605      6724.9433      48.731617      2.3577398     -149878.88     -146679.52    
     19200   1369.8825     -26250.015      6724.9433      48.731617      2.3577398     -149956.12     -146713.93    
     19300   1256.6273      11580.625      6724.9433      48.731617      2.3577398     -149973.75     -146999.61    
     19400   1259.2894      70162.305      6724.9433      48.731617      2.3577398     -149933.82     -146953.38    
     19500   1358.4737      22528.601      6724.9433      48.731617      2.3577398     -150000.06     -146784.88    
     19600   1320.4686     -12906.216      6724.9433      48.731617      2.3577398     -149808.58     -146683.34    
     19700   1298.3883     -18587.17       6724.9433      48.731617      2.3577398     -149785.83     -146712.85    
     19800   1200.3526      14751.578      6724.9433      48.731617      2.3577398     -149758.6      -146917.65    
     19900   1236.1954      23326.627      6724.9433      48.731617      2.3577398     -149926.72     -147000.94    
     20000   1275.5344      52566.077      6724.9433      48.731617      2.3577398     -149911.96     -146893.07    
     20100   1316.2926      802.45117      6724.9433      48.731617      2.3577398     -149884.08     -146768.73    
     20200   1374.0535      29117.586      6724.9433      48.731617      2.3577398     -149969.28     -146717.22    
     20300   1350.9484      60311.3        6724.9433      48.731617      2.3577398     -150007.13     -146809.75    
     20400   1308.5796      50579.278      6724.9433      48.731617      2.3577398     -150051.36     -146954.26    
     20500   1249.2887      66370.161      6724.9433      48.731617      2.3577398     -149949.58     -146992.81    
     20600   1318.9685      338.875        6724.9433      48.731617      2.3577398     -149885.19     -146763.5     
     20700   1372.0326      15261.283      6724.9433      48.731617      2.3577398     -149874.57     -146627.3     
     20800   1304.4416      10424.549      6724.9433      48.731617      2.3577398     -149721.44     -146634.14    
     20900   1324.5831      66578.444      6724.9433      48.731617      2.3577398     -149948.6      -146813.63    
     21000   1275.0414      42456.725      6724.9433      48.731617      2.3577398     -149928.36     -146910.64    
     21100   1273.7239      5974.3962      6724.9433      48.731617      2.3577398     -149866.66     -146852.06    
     21200   1348.9453      23297.209      6724.9433      48.731617      2.3577398     -149876.44     -146683.81    
     21300   1309.1959      46503.993      6724.9433      48.731617      2.3577398     -149752.47     -146653.92    
     21400   1264.2435      1127.1714      6724.9433      48.731617      2.3577398     -149847.07     -146854.91    
     21500   1245.0277      78952.904      6724.9433      48.731617      2.3577398     -149958.06     -147011.38    
     21600   1301.0538      15737.54       6724.9433      48.731617      2.3577398     -150065.91     -146986.62    
     21700   1284.7573     -4939.9229      6724.9433      48.731617      2.3577398     -149844.86     -146804.14    
     21800   1371.6321     -47691.775      6724.9433      48.731617      2.3577398     -149942.92     -146696.59    
     21900   1283.4332      38193.167      6724.9433      48.731617      2.3577398     -149735.25     -146697.67    
     22000   1268.2312      73698.155      6724.9433      48.731617      2.3577398     -149746.06     -146744.46    
     22100   1287.8278      35477.763      6724.9433      48.731617      2.3577398     -149996.03     -146948.05    
     22200   1245.5354      4819.9603      6724.9433      48.731617      2.3577398     -149905.88     -146957.99    
     22300   1307.383       41447.503      6724.9433      48.731617      2.3577398     -149852.73     -146758.47    
     22400   1319.5438      49198.806      6724.9433      48.731617      2.3577398     -149822.42     -146699.37    
     22500   1259.0993      36660.037      6724.9433      48.731617      2.3577398     -149728.53     -146748.54    
     22600   1315.9237     -10712.282      6724.9433      48.731617      2.3577398     -149918.32     -146803.84    
     22700   1276.7297      23129.271      6724.9433      48.731617      2.3577398     -149978.42     -146956.71    
     22800   1264.1033     -4215.148       6724.9433      48.731617      2.3577398     -150031.38     -147039.54    
     22900   1258.0911     -8725.7405      6724.9433      48.731617      2.3577398     -149905.69     -146928.09    
     23000   1314.923       9374.0934      6724.9433      48.731617      2.3577398     -149851.49     -146739.38    
     23100   1318.0629     -5987.5953      6724.9433      48.731617      2.3577398     -149803.2      -146683.66    
     23200   1274.5404      16035.761      6724.9433      48.731617      2.3577398     -149786.84     -146770.31    
     23300   1277.7831      18213.291      6724.9433      48.731617      2.3577398     -149942.98     -146918.77    
     23400   1257.7872      65122.592      6724.9433      48.731617      2.3577398     -149995.28     -147018.4     
     23500   1223.2283      19631.196      6724.9433      48.731617      2.3577398     -150021.23     -147126.14    
     23600   1306.9204     -7696.1058      6724.9433      48.731617      2.3577398     -150091.7      -146998.52    
     23700   1254.5002     -9512.6736      6724.9433      48.731617      2.3577398     -149774.79     -146805.68    
     23800   1325.7572      51666.283      6724.9433      48.731617      2.3577398     -149844.97     -146707.22    
     23900   1279.7288      85792.817      6724.9433      48.731617      2.3577398     -149742.8      -146713.99    
     24000   1348.4201      9837.5872      6724.9433      48.731617      2.3577398     -149988.42     -146797.03    
     24100   1299.2746      36975.464      6724.9433      48.731617      2.3577398     -150049.03     -146973.96    
     24200   1223.1112     -17679.913      6724.9433      48.731617      2.3577398     -149910.13     -147015.31    
     24300   1302.3973      28842.534      6724.9433      48.731617      2.3577398     -149893.89     -146811.42    
     24400   1304.184       61597.617      6724.9433      48.731617      2.3577398     -149804.66     -146717.97    
     24500   1315.7316      26172.577      6724.9433      48.731617      2.3577398     -149863.38     -146749.35    
     24600   1336.5472      67058.018      6724.9433      48.731617      2.3577398     -150009.65     -146846.36    
     24700   1259.8233      3543.3499      6724.9433      48.731617      2.3577398     -149964.71     -146983.01    
     24800   1301.8687     -36830.713      6724.9433      48.731617      2.3577398     -150037.9      -146956.68    
     24900   1321.5268      454.28654      6724.9433      48.731617      2.3577398     -149853.9      -146726.15    
     25000   1323.3574     -5113.2402      6724.9433      48.731617      2.3577398     -149748.75     -146616.68    
     25100   1328.9271      92175.172      6724.9433      48.731617      2.3577398     -149827.18     -146681.92    
     25200   1316.2835      34778.571      6724.9433      48.731617      2.3577398     -149943.79     -146828.46    
     25300   1261.7167     -16630.969      6724.9433      48.731617      2.3577398     -149926.31     -146940.13    
     25400   1253.2277     -41726.594      6724.9433      48.731617      2.3577398     -149923.96     -146957.86    
     25500   1334.4193      12996.567      6724.9433      48.731617      2.3577398     -149893.79     -146735.53    
     25600   1313.3194      84949.788      6724.9433      48.731617      2.3577398     -149755.77     -146647.46    
     25700   1359.016       71547.388      6724.9433      48.731617      2.3577398     -149927.76     -146711.29    
     25800   1277.3162     -2425.9904      6724.9433      48.731617      2.3577398     -149872.08     -146848.97    
     25900   1250.6418     -32795.027      6724.9433      48.731617      2.3577398     -149918.68     -146958.71    
     26000   1243.7489      5912.9628      6724.9433      48.731617      2.3577398     -149906.63     -146962.97    
     26100   1314.5676      6040.7395      6724.9433      48.731617      2.3577398     -149886.23     -146774.96    
     26200   1352.5472      48281.952      6724.9433      48.731617      2.3577398     -149856.71     -146655.55    
     26300   1306.8393      33632.061      6724.9433      48.731617      2.3577398     -149772.16     -146679.18    
     26400   1309.3811      9226.4564      6724.9433      48.731617      2.3577398     -149891.88     -146792.88    
     26500   1246.0236     -51463.026      6724.9433      48.731617      2.3577398     -149925.09     -146976.05    
     26600   1309.6851     -31513.881      6724.9433      48.731617      2.3577398     -150042.42     -146942.7     
     26700   1330.4794     -4914.1636      6724.9433      48.731617      2.3577398     -149976.94     -146828.01    
     26800   1338.1775      35236.1        6724.9433      48.731617      2.3577398     -149925.42     -146758.27    
     26900   1308.4079      50518.369      6724.9433      48.731617      2.3577398     -149857.19     -146760.5     
     27000   1336.9912      40824.379      6724.9433      48.731617      2.3577398     -149916.27     -146751.92    
     27100   1339.5565     -12460.919      6724.9433      48.731617      2.3577398     -149982.64     -146812.23    
     27200   1288.2526      11812.73       6724.9433      48.731617      2.3577398     -149998.33     -146949.34    
     27300   1318.4673     -26849.071      6724.9433      48.731617      2.3577398     -150002.21     -146881.71    
     27400   1335.1156      34360.552      6724.9433      48.731617      2.3577398     -149797.62     -146637.72    
     27500   1283.7925      32020.531      6724.9433      48.731617      2.3577398     -149682.2      -146643.76    
     27600   1268.4843      15723.49       6724.9433      48.731617      2.3577398     -149731.78     -146729.57    
     27700   1328.699       4590.7839      6724.9433      48.731617      2.3577398     -149945.83     -146801.12    
     27800   1309.5687      1671.2218      6724.9433      48.731617      2.3577398     -150011.03     -146911.59    
     27900   1278.5226      8033.9555      6724.9433      48.731617      2.3577398     -150151        -147125.04    
     28000   1241.8586     -50431.544      6724.9433      48.731617      2.3577398     -150086.86     -147147.67    
     28100   1297.1305      6001.7948      6724.9433      48.731617      2.3577398     -149999.04     -146929.04    
     28200   1361.3044      6997.8545      6724.9433      48.731617      2.3577398     -150064.82     -146842.93    
     28300   1314.9095      83928.559      6724.9433      48.731617      2.3577398     -149856        -146743.92    
     28400   1312.4103      26207.165      6724.9433      48.731617      2.3577398     -149757.84     -146651.67    
     28500   1326.2586      25174.462      6724.9433      48.731617      2.3577398     -149767.65     -146628.71    
     28600   1292.6099      4604.4396      6724.9433      48.731617      2.3577398     -149866.52     -146807.22    
     28700   1288.4867      3622.6457      6724.9433      48.731617      2.3577398     -149995.77     -146946.22    
     28800   1277.7422      59466.69       6724.9433      48.731617      2.3577398     -149938.25     -146914.13    
     28900   1336.0879      8890.5775      6724.9433      48.731617      2.3577398     -149934.25     -146772.05    
     29000   1320.2293      32767.032      6724.9433      48.731617      2.3577398     -149780.47     -146655.8     
     29100   1282.0303     -32039.46       6724.9433      48.731617      2.3577398     -149789.58     -146755.32    
     29200   1212.5672      17734.5        6724.9433      48.731617      2.3577398     -149888.9      -147019.04    
     29300   1280.9276      52571.285      6724.9433      48.731617      2.3577398     -150016.85     -146985.2     
     29400   1269.9562      24499.212      6724.9433      48.731617      2.3577398     -149820.83     -146815.15    
     29500   1315.0567     -29090.395      6724.9433      48.731617      2.3577398     -149774.4      -146661.97    
     29600   1327.2192      55082.057      6724.9433      48.731617      2.3577398     -149803.07     -146661.86    
     29700   1312.4484      7292.8527      6724.9433      48.731617      2.3577398     -149901.4      -146795.15    
     29800   1305.4277     -885.66767      6724.9433      48.731617      2.3577398     -149978.39     -146888.75    
     29900   1325.1385      2406.7177      6724.9433      48.731617      2.3577398     -150032.83     -146896.54    
     30000   1309.1291      38266.628      6724.9433      48.731617      2.3577398     -149785.62     -146687.22    
     30100   1394.2268      35310.557      6724.9433      48.731617      2.3577398     -149843.07     -146543.26    
     30200   1363.4797      38533.275      6724.9433      48.731617      2.3577398     -149904.19     -146677.16    
     30300   1270.2519      60233.147      6724.9433      48.731617      2.3577398     -149842.4      -146836.01    
     30400   1273.7253     -6110.2224      6724.9433      48.731617      2.3577398     -149928.95     -146914.34    
     30500   1352.7405     -44023.47       6724.9433      48.731617      2.3577398     -150117.03     -146915.42    
     30600   1323.2042     -27621.616      6724.9433      48.731617      2.3577398     -149878.32     -146746.61    
     30700   1340.8124      49567.4        6724.9433      48.731617      2.3577398     -149732.82     -146559.44    
     30800   1316.2392      54642.715      6724.9433      48.731617      2.3577398     -149726.96     -146611.73    
     30900   1247.1562      70459.951      6724.9433      48.731617      2.3577398     -149712.75     -146761.03    
     31000   1283.4423      1616.8352      6724.9433      48.731617      2.3577398     -149883.14     -146845.53    
     31100   1294.216       15290.037      6724.9433      48.731617      2.3577398     -149902.79     -146839.68    
     31200   1233.4845      15035.344      6724.9433      48.731617      2.3577398     -149759.05     -146839.68    
     31300   1278.319       46362.128      6724.9433      48.731617      2.3577398     -149786.64     -146761.17    
     31400   1396.7305      8835.0559      6724.9433      48.731617      2.3577398     -149918.31     -146612.58    
     31500   1437.7333     -2529.1412      6724.9433      48.731617      2.3577398     -149773.74     -146370.97    
     31600   1456.5444      15105.246      6724.9433      48.731617      2.3577398     -149882.88     -146435.59    
     31700   1354.3838     -26756.009      6724.9433      48.731617      2.3577398     -149862.08     -146656.57    
     31800   1292.449       46590.732      6724.9433      48.731617      2.3577398     -149851.34     -146792.42    
     31900   1260.7979      70721.903      6724.9433      48.731617      2.3577398     -149892.75     -146908.74    
     32000   1352.2551      60168.208      6724.9433      48.731617      2.3577398     -150069.24     -146868.77    
     32100   1336.6139      23486.577      6724.9433      48.731617      2.3577398     -149875.78     -146712.33    
     32200   1395.5863      20147.879      6724.9433      48.731617      2.3577398     -149885.55     -146582.53    
     32300   1332.211      -3789.4318      6724.9433      48.731617      2.3577398     -149801.56     -146648.53    
     32400   1343.3673      30372.235      6724.9433      48.731617      2.3577398     -149916.31     -146736.88    
     32500   1265.919       27982.818      6724.9433      48.731617      2.3577398     -149803.63     -146807.5     
     32600   1250.5412     -8302.3695      6724.9433      48.731617      2.3577398     -149765.89     -146806.16    
     32700   1276.4353      100.10828      6724.9433      48.731617      2.3577398     -149810.29     -146789.27    
     32800   1337.271       25879.9        6724.9433      48.731617      2.3577398     -149792.14     -146627.13    
     32900   1327.9486      44413.5        6724.9433      48.731617      2.3577398     -149723.14     -146580.2     
     33000   1285.6601      40349.81       6724.9433      48.731617      2.3577398     -149818.82     -146775.97    
     33100   1318.7618     -25804.741      6724.9433      48.731617      2.3577398     -150047.08     -146925.88    
     33200   1272.1277      35484.534      6724.9433      48.731617      2.3577398     -149923.15     -146912.32    
     33300   1330.2289      20841.167      6724.9433      48.731617      2.3577398     -149954.69     -146806.35    
     33400   1382.8605     -24919.354      6724.9433      48.731617      2.3577398     -149970.16     -146697.25    
     33500   1370.8271      56711.786      6724.9433      48.731617      2.3577398     -149847.87     -146603.44    
     33600   1360.7277      37791.63       6724.9433      48.731617      2.3577398     -149859.74     -146639.22    
     33700   1298.992       55681.215      6724.9433      48.731617      2.3577398     -149907.86     -146833.45    
     33800   1301.6955     -9748.6554      6724.9433      48.731617      2.3577398     -150025.82     -146945.01    
     33900   1310.0389     -1507.405       6724.9433      48.731617      2.3577398     -150000.62     -146900.07    
     34000   1322.0391      32037.277      6724.9433      48.731617      2.3577398     -149846.1      -146717.15    
     34100   1317.5754      30387.793      6724.9433      48.731617      2.3577398     -149776.54     -146658.15    
     34200   1328.2401      37440.085      6724.9433      48.731617      2.3577398     -149868.18     -146724.55    
     34300   1295.6153      15641.224      6724.9433      48.731617      2.3577398     -149866        -146799.59    
     34400   1259.2119     -18390.67       6724.9433      48.731617      2.3577398     -149839.14     -146858.89    
     34500   1284.8064      43692.45       6724.9433      48.731617      2.3577398     -149929.5      -146888.67    
     34600   1270.8342      27956.023      6724.9433      48.731617      2.3577398     -149881.23     -146873.47    
     34700   1291.0183      5973.342       6724.9433      48.731617      2.3577398     -149834.4      -146778.86    
     34800   1315.2081      11602.772      6724.9433      48.731617      2.3577398     -149883.38     -146770.59    
     34900   1366.1444      33358.049      6724.9433      48.731617      2.3577398     -150082.78     -146849.44    
     35000   1270.6146      16848.578      6724.9433      48.731617      2.3577398     -149988.71     -146981.47    
     35100   1255.0537      27020.47       6724.9433      48.731617      2.3577398     -150009.91     -147039.49    
     35200   1322.813      -7978.7983      6724.9433      48.731617      2.3577398     -149959.67     -146828.89    
     35300   1268.1681      29547.929      6724.9433      48.731617      2.3577398     -149717.08     -146715.62    
     35400   1307.4096      31019.286      6724.9433      48.731617      2.3577398     -149788.4      -146694.07    
     35500   1306.7838      50861.157      6724.9433      48.731617      2.3577398     -149798.93     -146706.08    
     35600   1268.5498     -17162.572      6724.9433      48.731617      2.3577398     -149868.03     -146865.68    
     35700   1269.9289      47001.082      6724.9433      48.731617      2.3577398     -149986.74     -146981.12    
     35800   1253.3666      8168.3835      6724.9433      48.731617      2.3577398     -149892.34     -146925.91    
     35900   1387.4171      23005.576      6724.9433      48.731617      2.3577398     -149964.54     -146680.86    
     36000   1294.6699     -2876.45        6724.9433      48.731617      2.3577398     -149750.61     -146686.43    
     36100   1312.3117     -824.21432      6724.9433      48.731617      2.3577398     -149880.94     -146775.01    
     36200   1253.429       21202.922      6724.9433      48.731617      2.3577398     -149871.19     -146904.62    
     36300   1328.0243      65795.748      6724.9433      48.731617      2.3577398     -150050.61     -146907.49    
     36400   1300.6393     -33903.72       6724.9433      48.731617      2.3577398     -149727.81     -146649.51    
     36500   1348.1086     -6146.6065      6724.9433      48.731617      2.3577398     -149790.47     -146599.82    
     36600   1330.0466     -9822.9757      6724.9433      48.731617      2.3577398     -149934.02     -146786.12    
     36700   1274.1911      7754.905       6724.9433      48.731617      2.3577398     -149879.83     -146864.12    
     36800   1329.299       29030.571      6724.9433      48.731617      2.3577398     -149971.22     -146825.09    
     36900   1304.5676      28818.89       6724.9433      48.731617      2.3577398     -149776.96     -146689.35    
     37000   1370.8743      3872.1746      6724.9433      48.731617      2.3577398     -149732.5      -146487.97    
     37100   1389.5703      33587.798      6724.9433      48.731617      2.3577398     -149853.35     -146564.57    
     37200   1304.1412     -10398.543      6724.9433      48.731617      2.3577398     -149837.14     -146750.55    
     37300   1279.8842      43218.692      6724.9433      48.731617      2.3577398     -149824.44     -146795.26    
     37400   1273.018       51093.797      6724.9433      48.731617      2.3577398     -149886.14     -146873.21    
     37500   1269.0307      14438.261      6724.9433      48.731617      2.3577398     -149910.86     -146907.36    
     37600   1297.4285      13082.846      6724.9433      48.731617      2.3577398     -149951.79     -146881.09    
     37700   1260.958      -5110.0483      6724.9433      48.731617      2.3577398     -149740.69     -146756.3     
     37800   1350.0627     -16132.805      6724.9433      48.731617      2.3577398     -149786.58     -146591.3     
     37900   1284.9322      2618.9052      6724.9433      48.731617      2.3577398     -149704.61     -146663.48    
     38000   1285.0159      32450.862      6724.9433      48.731617      2.3577398     -149861.91     -146820.58    
     38100   1283.7115     -1113.2441      6724.9433      48.731617      2.3577398     -149893.16     -146854.92    
     38200   1331.4547      61937.261      6724.9433      48.731617      2.3577398     -149994.41     -146843.17    
     38300   1279.3886      59082.748      6724.9433      48.731617      2.3577398     -149829.9      -146801.89    
     38400   1363.2652     -13565.502      6724.9433      48.731617      2.3577398     -149844.24     -146617.71    
     38500   1394.0595      7496.3786      6724.9433      48.731617      2.3577398     -149816.38     -146516.97    
     38600   1305.2574      16387.294      6724.9433      48.731617      2.3577398     -149761.45     -146672.21    
     38700   1311.201       11948.373      6724.9433      48.731617      2.3577398     -149902.13     -146798.83    
     38800   1305.6956      18828.632      6724.9433      48.731617      2.3577398     -149913.2      -146822.93    
     38900   1248.5275     -12189.12       6724.9433      48.731617      2.3577398     -149803.81     -146848.84    
     39000   1256.8975     -34098.208      6724.9433      48.731617      2.3577398     -149844.67     -146869.89    
     39100   1323.5724      3190.6047      6724.9433      48.731617      2.3577398     -150018.96     -146886.38    
     39200   1200.2174      5856.1816      6724.9433      48.731617      2.3577398     -149853.28     -147012.65    
     39300   1301.8642      34928.329      6724.9433      48.731617      2.3577398     -150037.45     -146956.24    
     39400   1359.3186      40173.043      6724.9433      48.731617      2.3577398     -149946.12     -146728.93    
     39500   1334.7455      26963.76       6724.9433      48.731617      2.3577398     -149863.91     -146704.89    
     39600   1348.6048     -5709.27        6724.9433      48.731617      2.3577398     -149962.01     -146770.19    
     39700   1305.6517      17917.009      6724.9433      48.731617      2.3577398     -149997.02     -146906.85    
     39800   1228.4633      32959.968      6724.9433      48.731617      2.3577398     -149966.58     -147059.1     
     39900   1255.3429      45933.208      6724.9433      48.731617      2.3577398     -150121.67     -147150.57    
     40000   1252.8724      17119.424      6724.9433      48.731617      2.3577398     -150011.82     -147046.56    
     40100   1325.008      -565.08945      6724.9433      48.731617      2.3577398     -149975.03     -146839.05    
     40200   1346.7896      25421.974      6724.9433      48.731617      2.3577398     -149923.95     -146736.42    
     40300   1292.3303      43913.979      6724.9433      48.731617      2.3577398     -149814.38     -146755.74    
     40400   1322.1001      73375.889      6724.9433      48.731617      2.3577398     -149913.05     -146783.95    
     40500   1262.8168      44200.699      6724.9433      48.731617      2.3577398     -149907.98     -146919.19    
     40600   1241.9076      60472.349      6724.9433      48.731617      2.3577398     -149977.96     -147038.66    
     40700   1272.5825      5202.0387      6724.9433      48.731617      2.3577398     -150021.21     -147009.31    
     40800   1335.535      -59469.438      6724.9433      48.731617      2.3577398     -149920.22     -146759.32    
     40900   1298.4315      21390.064      6724.9433      48.731617      2.3577398     -149778.05     -146704.97    
     41000   1307.9428      24873.111      6724.9433      48.731617      2.3577398     -149847.07     -146751.48    
     41100   1244.1421      59484.028      6724.9433      48.731617      2.3577398     -149799.04     -146854.45    
     41200   1255.9619      45275.673      6724.9433      48.731617      2.3577398     -149955.23     -146982.67    
     41300   1244.7598     -1194.4865      6724.9433      48.731617      2.3577398     -150076.16     -147130.11    
     41400   1225.8263     -22506.682      6724.9433      48.731617      2.3577398     -149953.54     -147052.3     
     41500   1270.147       25024.217      6724.9433      48.731617      2.3577398     -149797.28     -146791.15    
     41600   1340.8098      48364.405      6724.9433      48.731617      2.3577398     -149873.87     -146700.49    
     41700   1275.5332     -1991.4196      6724.9433      48.731617      2.3577398     -149714.63     -146695.75    
     41800   1350.7543      24910.929      6724.9433      48.731617      2.3577398     -149901.98     -146705.07    
     41900   1248.0809      44012.836      6724.9433      48.731617      2.3577398     -149860.16     -146906.25    
     42000   1311.569       53961.026      6724.9433      48.731617      2.3577398     -150050.62     -146946.45    
     42100   1291.1459     -20186.15       6724.9433      48.731617      2.3577398     -149955.1      -146899.26    
     42200   1318.9622     -61805.25       6724.9433      48.731617      2.3577398     -149908.95     -146787.28    
     42300   1347.2349      22662.194      6724.9433      48.731617      2.3577398     -149749.13     -146560.54    
     42400   1305.4266      21095.495      6724.9433      48.731617      2.3577398     -149742.73     -146653.09    
     42500   1272.7419      10659.831      6724.9433      48.731617      2.3577398     -149790.54     -146778.27    
     42600   1304.1529      53859.397      6724.9433      48.731617      2.3577398     -149903.77     -146817.15    
     42700   1322.7908     -25475.543      6724.9433      48.731617      2.3577398     -149923.47     -146792.74    
     42800   1317.7649      39480.681      6724.9433      48.731617      2.3577398     -149832.03     -146713.19    
     42900   1364.2786     -1080.9267      6724.9433      48.731617      2.3577398     -149786.11     -146557.18    
     43000   1349.0943      14538.021      6724.9433      48.731617      2.3577398     -149762.68     -146569.7     
     43100   1311.13        37620.615      6724.9433      48.731617      2.3577398     -149888.57     -146785.44    
     43200   1299.2312     -22990.461      6724.9433      48.731617      2.3577398     -149920.66     -146845.68    
     43300   1264.8866     -9785.6762      6724.9433      48.731617      2.3577398     -149883.11     -146889.42    
     43400   1304.0376      28330.957      6724.9433      48.731617      2.3577398     -149906.14     -146819.79    
     43500   1368.3304     -7632.8195      6724.9433      48.731617      2.3577398     -149816.87     -146578.36    
     43600   1383.9141     -26637.948      6724.9433      48.731617      2.3577398     -149849.92     -146574.52    
     43700   1319.2355      36907.604      6724.9433      48.731617      2.3577398     -149806.69     -146684.37    
     43800   1304.6903     -3824.3031      6724.9433      48.731617      2.3577398     -149871.9      -146784.01    
     43900   1363.7783     -31754.424      6724.9433      48.731617      2.3577398     -150036.37     -146808.63    
     44000   1237.6449      9338.9021      6724.9433      48.731617      2.3577398     -149764.94     -146835.73    
     44100   1358.138       24737.773      6724.9433      48.731617      2.3577398     -149967.75     -146753.36    
     44200   1356.665       2153.25        6724.9433      48.731617      2.3577398     -149865.22     -146654.32    
     44300   1349.7107      32712.079      6724.9433      48.731617      2.3577398     -149854.12     -146659.68    
     44400   1276.6083      17932.516      6724.9433      48.731617      2.3577398     -149843.82     -146822.39    
     44500   1307.8301      47213.563      6724.9433      48.731617      2.3577398     -150047.45     -146952.13    
     44600   1282.1539      48906.77       6724.9433      48.731617      2.3577398     -149952.02     -146917.47    
     44700   1285.9044     -6834.7624      6724.9433      48.731617      2.3577398     -149856.64     -146813.21    
     44800   1311.926      -6165.9921      6724.9433      48.731617      2.3577398     -149736.42     -146631.4     
     44900   1325.2873      41562.564      6724.9433      48.731617      2.3577398     -149722.78     -146586.14    
     45000   1334.9338      59547.615      6724.9433      48.731617      2.3577398     -149825.69     -146666.22    
     45100   1290.5687     -678.79703      6724.9433      48.731617      2.3577398     -149877.46     -146822.99    
     45200   1281.6577      9858.5883      6724.9433      48.731617      2.3577398     -149921.88     -146888.5     
     45300   1333.8008      52715.127      6724.9433      48.731617      2.3577398     -149999.79     -146843       
     45400   1320.4212     -40843.751      6724.9433      48.731617      2.3577398     -149815.01     -146689.89    
     45500   1374.0729      31670.566      6724.9433      48.731617      2.3577398     -149825.41     -146573.31    
     45600   1289.9521     -3382.6465      6724.9433      48.731617      2.3577398     -149770.05     -146717.04    
     45700   1249.7742      33492.004      6724.9433      48.731617      2.3577398     -149893.69     -146935.77    
     45800   1296.7041      70188.835      6724.9433      48.731617      2.3577398     -149959.99     -146891       
     45900   1261.5656     -583.16747      6724.9433      48.731617      2.3577398     -149787.25     -146801.43    
     46000   1327.1197      6968.9212      6724.9433      48.731617      2.3577398     -149787.81     -146646.83    
     46100   1319.8371      44941.242      6724.9433      48.731617      2.3577398     -149737.5      -146613.75    
     46200   1279.9498      48685.361      6724.9433      48.731617      2.3577398     -149901.6      -146872.26    
     46300   1288.4558     -5799.0208      6724.9433      48.731617      2.3577398     -150027.77     -146978.3     
     46400   1250.4385     -15438.077      6724.9433      48.731617      2.3577398     -149867.03     -146907.54    
     46500   1261.782      -18840.011      6724.9433      48.731617      2.3577398     -149729.12     -146742.78    
     46600   1357.109       25101.613      6724.9433      48.731617      2.3577398     -149871.21     -146659.26    
     46700   1287.5292      17190.351      6724.9433      48.731617      2.3577398     -149769.34     -146722.07    
     46800   1272.3949     -4693.2472      6724.9433      48.731617      2.3577398     -149956.74     -146945.28    
     46900   1212.4064     -13803.901      6724.9433      48.731617      2.3577398     -149907.75     -147038.27    
     47000   1258.111       40745.26       6724.9433      48.731617      2.3577398     -149929.05     -146951.4     
     47100   1237.0455      2766.4061      6724.9433      48.731617      2.3577398     -149732.29     -146804.49    
     47200   1333.5972      784.76338      6724.9433      48.731617      2.3577398     -149873.49     -146717.18    
     47300   1291.4395     -8538.7997      6724.9433      48.731617      2.3577398     -149778.36     -146721.83    
     47400   1305.3916      99006.945      6724.9433      48.731617      2.3577398     -149935.06     -146845.51    
     47500   1262.8789      51326.063      6724.9433      48.731617      2.3577398     -150009.54     -147020.61    
     47600   1315.2455     -2143.3172      6724.9433      48.731617      2.3577398     -150128.57     -147015.7     
     47700   1315.8893     -12658.823      6724.9433      48.731617      2.3577398     -149957.7      -146843.3     
     47800   1298.0381     -15015.804      6724.9433      48.731617      2.3577398     -149770.3      -146698.15    
     47900   1279.8278      63870.886      6724.9433      48.731617      2.3577398     -149749.86     -146720.82    
     48000   1283.0656      32680.153      6724.9433      48.731617      2.3577398     -149834.02     -146797.3     
     48100   1289.4334      801.90613      6724.9433      48.731617      2.3577398     -149923.71     -146871.93    
     48200   1246.7951      21664.8        6724.9433      48.731617      2.3577398     -149989.29     -147038.42    
     48300   1281.9993      37677.345      6724.9433      48.731617      2.3577398     -150149.16     -147114.97    
     48400   1267.9601      25148.464      6724.9433      48.731617      2.3577398     -149935.05     -146934.09    
     48500   1310.4869     -41960.919      6724.9433      48.731617      2.3577398     -149870.69     -146769.08    
     48600   1275.0123      28138.255      6724.9433      48.731617      2.3577398     -149711.91     -146694.26    
     48700   1345.1938      27894.857      6724.9433      48.731617      2.3577398     -149831.71     -146647.96    
     48800   1266.9873      92948.939      6724.9433      48.731617      2.3577398     -149790.97     -146792.31    
     48900   1268.957       8851.8663      6724.9433      48.731617      2.3577398     -149942.95     -146939.63    
     49000   1322.4882      39075.14       6724.9433      48.731617      2.3577398     -150062.87     -146932.85    
     49100   1276.6143     -2145.7328      6724.9433      48.731617      2.3577398     -149871.35     -146849.91    
     49200   1330.5303     -27785.16       6724.9433      48.731617      2.3577398     -149899.35     -146750.3     
     49300   1314.846      -5787.3476      6724.9433      48.731617      2.3577398     -149896.19     -146784.26    
     49400   1304.3343      10812.367      6724.9433      48.731617      2.3577398     -149880.86     -146793.81    
     49500   1333.9608      62311.27       6724.9433      48.731617      2.3577398     -149991.61     -146834.44    
     49600   1254.5789      14709.546      6724.9433      48.731617      2.3577398     -149888.72     -146919.43    
     49700   1261.431      -11050.034      6724.9433      48.731617      2.3577398     -149878.56     -146893.05    
     49800   1293.0124      32009.492      6724.9433      48.731617      2.3577398     -149829.3      -146769.05    
     49900   1327.5292      14691.542      6724.9433      48.731617      2.3577398     -149725.34     -146583.39    
     50000   1341.8685      45544.236      6724.9433      48.731617      2.3577398     -149713.53     -146537.64    
     50100   1335.3124     -19860.396      6724.9433      48.731617      2.3577398     -149839.28     -146678.91    
     50200   1266.9939     -21734.616      6724.9433      48.731617      2.3577398     -149802.19     -146803.51    
     50300   1261.6217     -24674.789      6724.9433      48.731617      2.3577398     -149766.64     -146780.68    
     50400   1290.0616     -14194.391      6724.9433      48.731617      2.3577398     -149768.04     -146714.77    
     50500   1271.4808      6480.2265      6724.9433      48.731617      2.3577398     -149766.67     -146757.37    
     50600   1266.8489     -2076.0698      6724.9433      48.731617      2.3577398     -149904.48     -146906.15    
     50700   1247.3626     -11170.883      6724.9433      48.731617      2.3577398     -149984.65     -147032.44    
     50800   1246.5135     -27972.63       6724.9433      48.731617      2.3577398     -149967.33     -147017.13    
     50900   1305.7158     -69098.048      6724.9433      48.731617      2.3577398     -149874.99     -146784.67    
     51000   1293.1749      12376.272      6724.9433      48.731617      2.3577398     -149743.72     -146683.08    
     51100   1320.2931      16753.096      6724.9433      48.731617      2.3577398     -149847.05     -146722.23    
     51200   1279.1814      57086.298      6724.9433      48.731617      2.3577398     -149932.02     -146904.5     
     51300   1294.3261      23578.994      6724.9433      48.731617      2.3577398     -150016.17     -146952.81    
     51400   1299.6967      40506.83       6724.9433      48.731617      2.3577398     -149954.68     -146878.61    
     51500   1330.5803     -2183.2985      6724.9433      48.731617      2.3577398     -149916.33     -146767.16    
     51600   1366.6831      20930.068      6724.9433      48.731617      2.3577398     -149898.92     -146664.3     
     51700   1285.7229      50964.727      6724.9433      48.731617      2.3577398     -149733.14     -146690.13    
     51800   1343.9879      42188.299      6724.9433      48.731617      2.3577398     -149894.44     -146713.54    
     51900   1285.6112      14595.668      6724.9433      48.731617      2.3577398     -149875.31     -146832.58    
     52000   1310.8678     -8801.8572      6724.9433      48.731617      2.3577398     -150010.54     -146908.02    
     52100   1254.248       5536.2756      6724.9433      48.731617      2.3577398     -149908.57     -146940.07    
     52200   1308.0914      59886.699      6724.9433      48.731617      2.3577398     -149948.42     -146852.48    
     52300   1323.6441      31427.549      6724.9433      48.731617      2.3577398     -149797.12     -146664.37    
     52400   1344.4451      51781.106      6724.9433      48.731617      2.3577398     -149822.3      -146640.32    
     52500   1283.5854     -17947.253      6724.9433      48.731617      2.3577398     -149878.85     -146840.91    
     52600   1311.8067      1986.3786      6724.9433      48.731617      2.3577398     -150003.99     -146899.25    
     52700   1293.6204      66098.596      6724.9433      48.731617      2.3577398     -149979.62     -146917.93    
     52800   1261.581       32567.23       6724.9433      48.731617      2.3577398     -149877.92     -146892.06    
     52900   1333.2234      21473.472      6724.9433      48.731617      2.3577398     -149838.77     -146683.34    
     53000   1373.8921      44713.043      6724.9433      48.731617      2.3577398     -149882.15     -146630.47    
     53100   1276.5372      66517.43       6724.9433      48.731617      2.3577398     -149759.96     -146738.7     
     53200   1278.2281     -47816.469      6724.9433      48.731617      2.3577398     -149860.26     -146835       
     53300   1320.5615     -15814.887      6724.9433      48.731617      2.3577398     -149997.48     -146872.02    
     53400   1275.236       34412.952      6724.9433      48.731617      2.3577398     -149859.91     -146841.73    
     53500   1307.2025      6774.8573      6724.9433      48.731617      2.3577398     -149884.25     -146790.41    
     53600   1315.6436      82197.452      6724.9433      48.731617      2.3577398     -149841.87     -146728.05    
     53700   1275.5592     -41754.768      6724.9433      48.731617      2.3577398     -149691.82     -146672.87    
     53800   1356.8563      74461.681      6724.9433      48.731617      2.3577398     -149914.62     -146703.27    
     53900   1263.266      -7096.4916      6724.9433      48.731617      2.3577398     -149872.57     -146882.72    
     54000   1267.665      -8860.5311      6724.9433      48.731617      2.3577398     -149959.1      -146958.84    
     54100   1283.3066      26655.473      6724.9433      48.731617      2.3577398     -149970.77     -146933.48    
     54200   1334.579      -26322.29       6724.9433      48.731617      2.3577398     -149879.99     -146721.36    
     54300   1375.3489      44016.625      6724.9433      48.731617      2.3577398     -149833.07     -146577.94    
     54400   1292.3438      62383.862      6724.9433      48.731617      2.3577398     -149749.78     -146691.11    
     54500   1271.3584     -26287.188      6724.9433      48.731617      2.3577398     -149826.62     -146817.62    
     54600   1337.2402      19353.666      6724.9433      48.731617      2.3577398     -149994.47     -146829.54    
     54700   1278.7373      30052.974      6724.9433      48.731617      2.3577398     -149938.4      -146911.94    
     54800   1268.9935     -5294.1553      6724.9433      48.731617      2.3577398     -149922.62     -146919.21    
     54900   1308.7603      5554.9486      6724.9433      48.731617      2.3577398     -149953.73     -146856.21    
     55000   1301.6492      34862.067      6724.9433      48.731617      2.3577398     -149890.36     -146809.66    
     55100   1304.1054     -180.8132       6724.9433      48.731617      2.3577398     -149942.89     -146856.38    
     55200   1272.1146      11221.105      6724.9433      48.731617      2.3577398     -149938.72     -146927.93    
     55300   1278.8562      41220.153      6724.9433      48.731617      2.3577398     -150007.59     -146980.84    
     55400   1320.8594      25344.041      6724.9433      48.731617      2.3577398     -150022.48     -146896.32    
     55500   1335.1779     -14781.813      6724.9433      48.731617      2.3577398     -149881.31     -146721.26    
     55600   1316.2138     -37653.828      6724.9433      48.731617      2.3577398     -149792.02     -146676.85    
     55700   1308.0278      61701.609      6724.9433      48.731617      2.3577398     -149929.97     -146834.18    
     55800   1274.0047      95270.725      6724.9433      48.731617      2.3577398     -150005.85     -146990.58    
     55900   1244.3686      2007.2649      6724.9433      48.731617      2.3577398     -149919.98     -146974.86    
     56000   1261.968      -54430.903      6724.9433      48.731617      2.3577398     -149863.88     -146877.1     
     56100   1341.7751     -74990.999      6724.9433      48.731617      2.3577398     -149936.94     -146761.28    
     56200   1285.7375     -15612.565      6724.9433      48.731617      2.3577398     -149843.66     -146800.63    
     56300   1229.6094      4067.7472      6724.9433      48.731617      2.3577398     -149947.49     -147037.29    
     56400   1291.3728      22570.302      6724.9433      48.731617      2.3577398     -150127.34     -147070.96    
     56500   1254.4515      18860.553      6724.9433      48.731617      2.3577398     -149899.12     -146930.13    
     56600   1319.8603     -62132.557      6724.9433      48.731617      2.3577398     -149921.01     -146797.21    
     56700   1312.3726      69289.955      6724.9433      48.731617      2.3577398     -149923.58     -146817.51    
     56800   1321.0245     -3551.002       6724.9433      48.731617      2.3577398     -149991.96     -146865.4     
     56900   1267.5415     -2686.0027      6724.9433      48.731617      2.3577398     -149949.17     -146949.2     
     57000   1232.5269      29674.174      6724.9433      48.731617      2.3577398     -150084.02     -147166.92    
     57100   1270.2731      72336.903      6724.9433      48.731617      2.3577398     -150180.62     -147174.18    
     57200   1253.8004      13121.216      6724.9433      48.731617      2.3577398     -149974.36     -147006.91    
     57300   1313.4303      13078.874      6724.9433      48.731617      2.3577398     -150025.12     -146916.54    
     57400   1299.1728     -20620.447      6724.9433      48.731617      2.3577398     -149935.77     -146860.93    
     57500   1314.1758     -38656.759      6724.9433      48.731617      2.3577398     -149932.16     -146821.82    
     57600   1332.6311      55193.185      6724.9433      48.731617      2.3577398     -149948.02     -146794       
     57700   1366.0372      7839.1938      6724.9433      48.731617      2.3577398     -150028.03     -146794.94    
     57800   1266.6185     -19433.95       6724.9433      48.731617      2.3577398     -149884.24     -146886.46    
     57900   1285.404       21661.705      6724.9433      48.731617      2.3577398     -150059.3      -147017.06    
     58000   1272.7354      4927.6231      6724.9433      48.731617      2.3577398     -150108.06     -147095.79    
     58100   1301.4919      35501.917      6724.9433      48.731617      2.3577398     -149976.38     -146896.06    
     58200   1333.2866      22639.222      6724.9433      48.731617      2.3577398     -149918.8      -146763.23    
     58300   1331.3744      32192.437      6724.9433      48.731617      2.3577398     -149968.89     -146817.84    
     58400   1306.0758      54617.094      6724.9433      48.731617      2.3577398     -149994.83     -146903.66    
     58500   1259.9787     -36329.313      6724.9433      48.731617      2.3577398     -150026.46     -147044.39    
     58600   1261.4272     -2218.2451      6724.9433      48.731617      2.3577398     -150152.94     -147167.44    
     58700   1261.1892      19891.837      6724.9433      48.731617      2.3577398     -150085.48     -147100.55    
     58800   1292.2597      5979.9716      6724.9433      48.731617      2.3577398     -149923.88     -146865.41    
     58900   1366.4733      26667.825      6724.9433      48.731617      2.3577398     -149965.74     -146731.63    
     59000   1296.0278      35762.009      6724.9433      48.731617      2.3577398     -149779.11     -146711.72    
     59100   1321.8559      28799.545      6724.9433      48.731617      2.3577398     -149907.42     -146778.9     
     59200   1270.4547     -9980.8594      6724.9433      48.731617      2.3577398     -149997.35     -146990.48    
     59300   1240.0386      44784.533      6724.9433      48.731617      2.3577398     -149995.36     -147060.49    
     59400   1286.9478     -4535.118       6724.9433      48.731617      2.3577398     -150055.31     -147009.41    
     59500   1322.0379     -20845.49       6724.9433      48.731617      2.3577398     -150035.94     -146906.99    
     59600   1332.195       4692.4906      6724.9433      48.731617      2.3577398     -149942.14     -146789.15    
     59700   1400.2296      26185.15       6724.9433      48.731617      2.3577398     -149792.45     -146478.43    
     59800   1357.0238      97357.752      6724.9433      48.731617      2.3577398     -149772.38     -146560.63    
     59900   1325.1484     -32451.716      6724.9433      48.731617      2.3577398     -149908.69     -146772.38    
     60000   1310.3604     -18417.748      6724.9433      48.731617      2.3577398     -150003.28     -146901.97    
     60100   1299.5888     -50361.179      6724.9433      48.731617      2.3577398     -150005.31     -146929.49    
     60200   1364.0118      30661.095      6724.9433      48.731617      2.3577398     -150102.05     -146873.76    
     60300   1374.6915      29847.793      6724.9433      48.731617      2.3577398     -150035.36     -146781.79    
     60400   1316.2537      6653.1289      6724.9433      48.731617      2.3577398     -149817.64     -146702.38    
     60500   1332.0982      7685.3427      6724.9433      48.731617      2.3577398     -149859.97     -146707.21    
     60600   1258.4964      8024.9111      6724.9433      48.731617      2.3577398     -149860.35     -146881.78    
     60700   1278.6465      56311.466      6724.9433      48.731617      2.3577398     -150043.35     -147017.1     
     60800   1266.7376      13045.553      6724.9433      48.731617      2.3577398     -150012.69     -147014.63    
     60900   1311.9141     -52223.509      6724.9433      48.731617      2.3577398     -149993.7      -146888.71    
     61000   1357.9435     -49122.916      6724.9433      48.731617      2.3577398     -149871.32     -146657.39    
     61100   1378.8118      49714.187      6724.9433      48.731617      2.3577398     -149791.3      -146527.98    
     61200   1328.9371      24203.525      6724.9433      48.731617      2.3577398     -149783.24     -146637.96    
     61300   1260.9265      18640.533      6724.9433      48.731617      2.3577398     -149729.48     -146745.16    
     61400   1323.5819      40518.223      6724.9433      48.731617      2.3577398     -150035.53     -146902.93    
     61500   1308.6241     -7598.1032      6724.9433      48.731617      2.3577398     -150085.44     -146988.24    
     61600   1323.9904     -28998.654      6724.9433      48.731617      2.3577398     -150121.46     -146987.89    
     61700   1288.1806      24810.037      6724.9433      48.731617      2.3577398     -149901.45     -146852.63    
     61800   1358.9719     -41422.51       6724.9433      48.731617      2.3577398     -149837.76     -146621.4     
     61900   1327.9862      24452.707      6724.9433      48.731617      2.3577398     -149818.24     -146675.21    
     62000   1358.7867     -6822.1269      6724.9433      48.731617      2.3577398     -150023.49     -146807.56    
     62100   1326.6732      23715.198      6724.9433      48.731617      2.3577398     -150022.77     -146882.84    
     62200   1287.9469      12527.311      6724.9433      48.731617      2.3577398     -149974.68     -146926.42    
     62300   1289.631       10599.656      6724.9433      48.731617      2.3577398     -150026.27     -146974.02    
     62400   1243.8203     -5951.653       6724.9433      48.731617      2.3577398     -150012.55     -147068.72    
     62500   1313.7093     -34375.061      6724.9433      48.731617      2.3577398     -150118.25     -147009.01    
     62600   1306.0803     -6403.8475      6724.9433      48.731617      2.3577398     -149933.46     -146842.28    
     62700   1306.9637      31788.867      6724.9433      48.731617      2.3577398     -149817.41     -146724.13    
     62800   1371.8593     -10575.632      6724.9433      48.731617      2.3577398     -149975.86     -146728.99    
     62900   1284.9478      30281.876      6724.9433      48.731617      2.3577398     -149990.25     -146949.08    
     63000   1274.9766     -24940.484      6724.9433      48.731617      2.3577398     -150068.78     -147051.21    
     63100   1212.111      -13575.175      6724.9433      48.731617      2.3577398     -149853.07     -146984.29    
     63200   1272.0441      27301.674      6724.9433      48.731617      2.3577398     -149848.16     -146837.53    
     63300   1386.5598     -13263.541      6724.9433      48.731617      2.3577398     -150093.05     -146811.39    
     63400   1307.3833      13279.538      6724.9433      48.731617      2.3577398     -150052.28     -146958.01    
     63500   1248.8832     -19855.265      6724.9433      48.731617      2.3577398     -150065.15     -147109.34    
     63600   1287.7357     -31778.26       6724.9433      48.731617      2.3577398     -150082.47     -147034.7     
     63700   1261.1899      12483.689      6724.9433      48.731617      2.3577398     -149938.48     -146953.54    
     63800   1313.6421      16951.168      6724.9433      48.731617      2.3577398     -149984.85     -146875.77    
     63900   1340.6843      17495.821      6724.9433      48.731617      2.3577398     -149982.78     -146809.7     
     64000   1311.9724      54908.396      6724.9433      48.731617      2.3577398     -149941.78     -146836.65    
     64100   1269.9029     -18103.116      6724.9433      48.731617      2.3577398     -150040.82     -147035.26    
     64200   1258.828       28053.54       6724.9433      48.731617      2.3577398     -150042.17     -147062.82    
     64300   1268.3678     -62862.763      6724.9433      48.731617      2.3577398     -149911.82     -146909.9     
     64400   1333.4212      10931.225      6724.9433      48.731617      2.3577398     -149948.88     -146792.98    
     64500   1264.6344      81833.472      6724.9433      48.731617      2.3577398     -149794.5      -146801.41    
[...]
    384200   1357.1625      11512.895      6724.9433      48.731617      2.3577398     -149991.9      -146779.82    
    384300   1287.8596     -23167.309      6724.9433      48.731617      2.3577398     -149981.58     -146933.52    
    384400   1334.1768      16383.358      6724.9433      48.731617      2.3577398     -150163.69     -147006.01    
    384500   1293.9064     -33747.053      6724.9433      48.731617      2.3577398     -150122.34     -147059.97    
    384600   1302.582       45682.544      6724.9433      48.731617      2.3577398     -149999.09     -146916.19    
    384700   1355.4579     -10465.907      6724.9433      48.731617      2.3577398     -149950.89     -146742.84    
    384800   1337.9865     -52008.142      6724.9433      48.731617      2.3577398     -149913.88     -146747.18    
    384900   1354.1563      66395.427      6724.9433      48.731617      2.3577398     -150090.91     -146885.95    
    385000   1200.5067      60388.53       6724.9433      48.731617      2.3577398     -149943.2      -147101.89    
    385100   1260.4972      64255.336      6724.9433      48.731617      2.3577398     -150022.77     -147039.47    
    385200   1301.7925      7894.9997      6724.9433      48.731617      2.3577398     -149998.73     -146917.69    
    385300   1284.7173      5275.8905      6724.9433      48.731617      2.3577398     -149889.13     -146848.51    
    385400   1357.4218     -9172.3824      6724.9433      48.731617      2.3577398     -150001.24     -146788.55    
    385500   1270.2959      56091.683      6724.9433      48.731617      2.3577398     -149944.23     -146937.74    
    385600   1271.0133      63853.264      6724.9433      48.731617      2.3577398     -150119.83     -147111.64    
    385700   1282.4152      2153.285       6724.9433      48.731617      2.3577398     -150099.47     -147064.3     
    385800   1295.0936     -19607.429      6724.9433      48.731617      2.3577398     -149974.25     -146909.07    
    385900   1285.5189      1045.1456      6724.9433      48.731617      2.3577398     -149885.85     -146843.33    
    386000   1321.5834      7769.6636      6724.9433      48.731617      2.3577398     -149973.33     -146845.45    
    386100   1290.1201      23699.617      6724.9433      48.731617      2.3577398     -149908.23     -146854.82    
    386200   1303.1448      77386.022      6724.9433      48.731617      2.3577398     -149939.86     -146855.62    
    386300   1312.8886     -45699.749      6724.9433      48.731617      2.3577398     -150013.97     -146906.67    
    386400   1270.99        27121.7        6724.9433      48.731617      2.3577398     -150094.54     -147086.4     
    386500   1193.8831     -77121.384      6724.9433      48.731617      2.3577398     -150075.39     -147249.76    
    386600   1272.984      -8767.4006      6724.9433      48.731617      2.3577398     -150122.39     -147109.54    
    386700   1246.7351     -1143.1126      6724.9433      48.731617      2.3577398     -149931.83     -146981.11    
    386800   1291.1638      98738.035      6724.9433      48.731617      2.3577398     -149949.23     -146893.35    
    386900   1271.4061      5479.7457      6724.9433      48.731617      2.3577398     -149829.87     -146820.76    
    387000   1335.0292     -5643.593       6724.9433      48.731617      2.3577398     -149837.06     -146677.36    
    387100   1380.4134     -18730.042      6724.9433      48.731617      2.3577398     -149822.96     -146555.85    
    387200   1288.5919     -50276.015      6724.9433      48.731617      2.3577398     -149829.09     -146779.3     
    387300   1299.9735     -12350.686      6724.9433      48.731617      2.3577398     -149994.61     -146917.88    
    387400   1282.9588     -1895.4058      6724.9433      48.731617      2.3577398     -149998.34     -146961.88    
    387500   1270.7858      8446.8004      6724.9433      48.731617      2.3577398     -149980.71     -146973.06    
    387600   1336.5431      18874.612      6724.9433      48.731617      2.3577398     -150064.7      -146901.42    
    387700   1324.0615      10518.257      6724.9433      48.731617      2.3577398     -149871.72     -146737.98    
    387800   1314.8244     -33596.356      6724.9433      48.731617      2.3577398     -149854.61     -146742.74    
    387900   1303.4488      19682.239      6724.9433      48.731617      2.3577398     -150051.11     -146966.15    
    388000   1252.5595      8056.1449      6724.9433      48.731617      2.3577398     -150015.51     -147051       
    388100   1276.7366      8219.7931      6724.9433      48.731617      2.3577398     -149999.2      -146977.47    
    388200   1344.5346      26326.041      6724.9433      48.731617      2.3577398     -150021.26     -146839.07    
    388300   1357.6965      18397.306      6724.9433      48.731617      2.3577398     -149979.36     -146766.01    
    388400   1314.9438     -27768.263      6724.9433      48.731617      2.3577398     -149930.24     -146818.08    
    388500   1312.3417      22607.013      6724.9433      48.731617      2.3577398     -149951.25     -146845.25    
    388600   1301.0115      40837.346      6724.9433      48.731617      2.3577398     -149963.31     -146884.12    
    388700   1290.7369      29327.912      6724.9433      48.731617      2.3577398     -149967.3      -146912.43    
    388800   1282.7142      13424.301      6724.9433      48.731617      2.3577398     -149914.37     -146878.48    
    388900   1319.2499     -62774.42       6724.9433      48.731617      2.3577398     -149751.73     -146629.38    
    389000   1375.7143     -15844.226      6724.9433      48.731617      2.3577398     -149882.86     -146626.87    
    389100   1272.6827     -16732.084      6724.9433      48.731617      2.3577398     -149851.2      -146839.07    
    389200   1260.9316     -33421.798      6724.9433      48.731617      2.3577398     -149894.22     -146909.89    
    389300   1294.2823      33466.417      6724.9433      48.731617      2.3577398     -149991.21     -146927.95    
    389400   1286.2941      17827.349      6724.9433      48.731617      2.3577398     -149927.71     -146883.35    
    389500   1341.7829     -39148.341      6724.9433      48.731617      2.3577398     -149884.4      -146708.71    
    389600   1345.5716      29293.392      6724.9433      48.731617      2.3577398     -149801.84     -146617.19    
    389700   1293.0406      30914.401      6724.9433      48.731617      2.3577398     -149828.67     -146768.35    
    389800   1330.3333     -1363.039       6724.9433      48.731617      2.3577398     -150124.32     -146975.73    
    389900   1223.6417      62887.933      6724.9433      48.731617      2.3577398     -149889.65     -146993.58    
    390000   1297.1784     -44417.394      6724.9433      48.731617      2.3577398     -149949.4      -146879.29    
    390100   1362.8978      20627.854      6724.9433      48.731617      2.3577398     -149980.11     -146754.46    
    390200   1264.9622      34310.633      6724.9433      48.731617      2.3577398     -149758.45     -146764.58    
    390300   1302.8115      49562.642      6724.9433      48.731617      2.3577398     -150059.26     -146975.82    
    390400   1191.0888     -27725.317      6724.9433      48.731617      2.3577398     -149911.83     -147092.81    
    390500   1299.1158      12006.506      6724.9433      48.731617      2.3577398     -150049.65     -146974.95    
    390600   1341.7872      15831.148      6724.9433      48.731617      2.3577398     -150028.94     -146853.24    
    390700   1269.8226     -59060.573      6724.9433      48.731617      2.3577398     -149829.06     -146823.69    
    390800   1317.2016      49242.749      6724.9433      48.731617      2.3577398     -149922.44     -146804.93    
    390900   1335.8195      42728.425      6724.9433      48.731617      2.3577398     -149967.62     -146806.05    
    391000   1304.8577      65530.748      6724.9433      48.731617      2.3577398     -149908.47     -146820.18    
    391100   1324.8621     -44063.985      6724.9433      48.731617      2.3577398     -150027.05     -146891.42    
    391200   1251.8938      23263.287      6724.9433      48.731617      2.3577398     -150037.59     -147074.65    
    391300   1299.0902     -38049.931      6724.9433      48.731617      2.3577398     -150204.47     -147129.83    
    391400   1294.6318      41732.415      6724.9433      48.731617      2.3577398     -150045.08     -146981       
    391500   1311.6775      29518.403      6724.9433      48.731617      2.3577398     -149862.81     -146758.38    
    391600   1299.6407      32643.452      6724.9433      48.731617      2.3577398     -149838.66     -146762.72    
    391700   1303.8764     -24486.51       6724.9433      48.731617      2.3577398     -149957.36     -146871.39    
    391800   1285.1348     -3135.9622      6724.9433      48.731617      2.3577398     -150033.99     -146992.38    
    391900   1273.773       29180.68       6724.9433      48.731617      2.3577398     -150107.74     -147093.02    
    392000   1250.9742      39477.21       6724.9433      48.731617      2.3577398     -150068.31     -147107.55    
    392100   1300.9121     -10683.469      6724.9433      48.731617      2.3577398     -149926.25     -146847.3     
    392200   1312.7866     -77269.176      6724.9433      48.731617      2.3577398     -149862.79     -146755.73    
    392300   1303.1615      17575.751      6724.9433      48.731617      2.3577398     -149896.63     -146812.36    
    392400   1252.5011      67166.321      6724.9433      48.731617      2.3577398     -149883.72     -146919.35    
    392500   1296.2528     -3618.6688      6724.9433      48.731617      2.3577398     -150112.46     -147044.53    
    392600   1246.8985     -10277.108      6724.9433      48.731617      2.3577398     -150034.25     -147083.13    
    392700   1306.2732      59825.811      6724.9433      48.731617      2.3577398     -149931.1      -146839.46    
    392800   1332.5766      32532.647      6724.9433      48.731617      2.3577398     -149876.45     -146722.55    
    392900   1346.9948     -16239.438      6724.9433      48.731617      2.3577398     -149999.48     -146811.47    
    393000   1262.7644      10909.624      6724.9433      48.731617      2.3577398     -149949.31     -146960.65    
    393100   1263.0842      2838.1679      6724.9433      48.731617      2.3577398     -150000.65     -147011.22    
    393200   1325.1029      49795.437      6724.9433      48.731617      2.3577398     -150060.5      -146924.3     
    393300   1349.0904     -60355.948      6724.9433      48.731617      2.3577398     -149825.19     -146632.21    
    393400   1379.8288     -45463.917      6724.9433      48.731617      2.3577398     -149855.68     -146589.95    
    393500   1315.5099     -789.03848      6724.9433      48.731617      2.3577398     -149867.02     -146753.52    
    393600   1266.9141     -23323.67       6724.9433      48.731617      2.3577398     -149915.1      -146916.61    
    393700   1297.3289      64936.9        6724.9433      48.731617      2.3577398     -150006.64     -146936.17    
    393800   1339.028      -8138.1882      6724.9433      48.731617      2.3577398     -150100.63     -146931.47    
    393900   1304.8191     -61778.174      6724.9433      48.731617      2.3577398     -149963.54     -146875.34    
    394000   1300.0994      53769.945      6724.9433      48.731617      2.3577398     -149860.67     -146783.65    
    394100   1272.507       21341.161      6724.9433      48.731617      2.3577398     -149835.66     -146823.94    
    394200   1291.8455      24901.342      6724.9433      48.731617      2.3577398     -149978.18     -146920.69    
    394300   1227.1144      38677.262      6724.9433      48.731617      2.3577398     -149976.97     -147072.68    
    394400   1271.4179      3452.6738      6724.9433      48.731617      2.3577398     -150088.31     -147079.17    
    394500   1359.2399      16199.288      6724.9433      48.731617      2.3577398     -150061.23     -146844.23    
    394600   1286.4677     -11901.57       6724.9433      48.731617      2.3577398     -149797.81     -146753.05    
    394700   1318.978      -27550.98       6724.9433      48.731617      2.3577398     -149902.4      -146780.69    
    394800   1279.2965     -11420.777      6724.9433      48.731617      2.3577398     -150007.28     -146979.49    
    394900   1245.6959      72173.467      6724.9433      48.731617      2.3577398     -149975.87     -147027.6     
    395000   1271.0369      146567.15      6724.9433      48.731617      2.3577398     -149937.42     -146929.17    
    395100   1303.9803     -3380.5163      6724.9433      48.731617      2.3577398     -149908.37     -146822.16    
    395200   1325.7048      9937.1559      6724.9433      48.731617      2.3577398     -149934.61     -146796.98    
    395300   1291.3759     -62849.544      6724.9433      48.731617      2.3577398     -150040.03     -146983.64    
    395400   1216.6783      47673.582      6724.9433      48.731617      2.3577398     -150048.68     -147169.09    
    395500   1235.7187      104659.29      6724.9433      48.731617      2.3577398     -150003.21     -147078.56    
    395600   1262.0528      43428.102      6724.9433      48.731617      2.3577398     -149902.76     -146915.78    
    395700   1317.9676     -29121.118      6724.9433      48.731617      2.3577398     -149916.99     -146797.67    
    395800   1267.6208     -2751.1616      6724.9433      48.731617      2.3577398     -149787.29     -146787.13    
    395900   1386.9421     -21468.195      6724.9433      48.731617      2.3577398     -150161.05     -146878.49    
    396000   1267.3139      21471.53       6724.9433      48.731617      2.3577398     -150113.68     -147114.25    
    396100   1227.5939      11802.088      6724.9433      48.731617      2.3577398     -149998.27     -147092.84    
    396200   1259.0642      41285.886      6724.9433      48.731617      2.3577398     -149911.7      -146931.79    
    396300   1367.3389      6152.2406      6724.9433      48.731617      2.3577398     -150047.68     -146811.51    
    396400   1308.194       76613.071      6724.9433      48.731617      2.3577398     -149890.15     -146793.96    
    396500   1298.7608     -19277.729      6724.9433      48.731617      2.3577398     -149961.31     -146887.45    
    396600   1256.9016     -12861.014      6724.9433      48.731617      2.3577398     -150045.76     -147070.97    
    396700   1285.6176     -40749.371      6724.9433      48.731617      2.3577398     -150077.18     -147034.43    
    396800   1285.0069      23834.425      6724.9433      48.731617      2.3577398     -150019.91     -146978.61    
    396900   1301.2739      10926.281      6724.9433      48.731617      2.3577398     -149980.77     -146900.96    
    397000   1340.9716      5992.0943      6724.9433      48.731617      2.3577398     -149968.72     -146794.96    
    397100   1278.4953      283.72502      6724.9433      48.731617      2.3577398     -149816.24     -146790.35    
    397200   1285.2708     -3548.5184      6724.9433      48.731617      2.3577398     -149958.28     -146916.35    
    397300   1215.5907     -36210.693      6724.9433      48.731617      2.3577398     -149932.13     -147055.11    
    397400   1270.1322     -12247.556      6724.9433      48.731617      2.3577398     -150011.7      -147005.6     
    397500   1270.725       8725.6412      6724.9433      48.731617      2.3577398     -149871.45     -146863.94    
    397600   1339.6913     -2408.7022      6724.9433      48.731617      2.3577398     -149912.78     -146742.05    
    397700   1331.2611     -8123.5989      6724.9433      48.731617      2.3577398     -149965.06     -146814.28    
    397800   1241.598      -47321.84       6724.9433      48.731617      2.3577398     -149969.08     -147030.51    
    397900   1217.3046      8684.3148      6724.9433      48.731617      2.3577398     -150069.67     -147188.6     
    398000   1244.9764      32866.087      6724.9433      48.731617      2.3577398     -150039.26     -147092.69    
    398100   1343.1202      69254.871      6724.9433      48.731617      2.3577398     -150093.57     -146914.72    
    398200   1321.4067      608.02641      6724.9433      48.731617      2.3577398     -149954.38     -146826.93    
    398300   1338.8433     -19186.441      6724.9433      48.731617      2.3577398     -149947.1      -146778.37    
    398400   1247.9432      28489.362      6724.9433      48.731617      2.3577398     -149872.56     -146918.97    
    398500   1211.8889      21300.87       6724.9433      48.731617      2.3577398     -149972.37     -147104.11    
    398600   1259.2358      16607.075      6724.9433      48.731617      2.3577398     -150044.01     -147063.7     
    398700   1235.0701      12641.874      6724.9433      48.731617      2.3577398     -149897.87     -146974.75    
    398800   1311.0334      70.443057      6724.9433      48.731617      2.3577398     -150026.86     -146923.96    
    398900   1256.1267      4559.0834      6724.9433      48.731617      2.3577398     -149849.09     -146876.14    
    399000   1344.1818      5181.3148      6724.9433      48.731617      2.3577398     -150006.6      -146825.24    
    399100   1259.009       46903.092      6724.9433      48.731617      2.3577398     -149947.1      -146967.33    
    399200   1242.7432     -236.55778      6724.9433      48.731617      2.3577398     -150081.98     -147140.7     
    399300   1299.0925     -14465.653      6724.9433      48.731617      2.3577398     -150165.14     -147090.5     
    399400   1323.7297      26840.343      6724.9433      48.731617      2.3577398     -150023.49     -146890.54    
    399500   1339.9229      18775.603      6724.9433      48.731617      2.3577398     -149999.34     -146828.06    
    399600   1356.2992      13713.033      6724.9433      48.731617      2.3577398     -150073.48     -146863.44    
    399700   1308.3668     -4418.342       6724.9433      48.731617      2.3577398     -150049.09     -146952.49    
    399800   1283.918       73209.391      6724.9433      48.731617      2.3577398     -150090.66     -147051.93    
    399900   1253.341       16934.177      6724.9433      48.731617      2.3577398     -150094.36     -147128       
    400000   1242.3893     -3306.7219      6724.9433      48.731617      2.3577398     -149954.38     -147013.94    
    400011   1295.0483     -5772.6756      6724.9433      48.731617      2.3577398     -150056.08     -146991.01    
Loop time of 15228 on 64 procs for 400000 steps with 795 atoms

Performance: 0.567 ns/day, 42.300 hours/ns, 26.267 timesteps/s
99.6% CPU use with 64 MPI tasks x 1 OpenMP threads

MPI task timing breakdown:
Section |  min time  |  avg time  |  max time  |%varavg| %total
---------------------------------------------------------------
Pair    | 8324.5     | 10745      | 13768      |1469.5 | 70.56
Neigh   | 111.99     | 144.66     | 184.02     | 168.1 |  0.95
Comm    | 119.51     | 2773.2     | 5222.9     |2524.8 | 18.21
Output  | 0.50885    | 0.63242    | 0.88841    |   9.0 |  0.00
Modify  | 1153.4     | 1561.9     | 2684.6     |1012.8 | 10.26
Other   |            | 2.857      |            |       |  0.02

Nlocal:        12.4219 ave          16 max           7 min
Histogram: 1 1 3 10 7 14 5 6 13 4
Nghost:        2104.92 ave        2412 max        1838 min
Histogram: 5 9 3 7 17 7 0 4 6 6
Neighs:        6918.64 ave        9256 max        3345 min
Histogram: 3 2 5 8 10 3 8 4 5 16

Total # of neighbors = 442793
Ave neighs/atom = 556.97233
Neighbor list builds = 13750
Dangerous builds = 0

write_data graphene_single_layer_ReaxFF_795_C_temp_1300K.data ### MODIFY FILE NAME ###
System init for write_data ...
Total wall time: 4:13:50
