
# System definition
read_data graphene_single_layer_x-45_y-45_795_C.data ### MODIFY FILE NAME ###
Reading data file ...
  orthogonal box = (-1.4464652 -1.4423034 -1.42) to (47.285152 47.149102 1.42)
  8 by 8 by 1 MPI processor grid
  reading atoms ...
  795 atoms
  reading velocities ...
  795 velocities
  read_data CPU = 0.045 seconds

pair_style reax/c NULL
pair_coeff * * ffield.reax.cho C
Reading potential file ffield.reax.cho with DATE: 2011-02-18
fix qeq_reax all qeq/reax 1 0.0 10.0 1.0e-6 reax/c


# Minimization
timestep 0.25
min_style cg
thermo 100
thermo_style custom step temp press vol lx density pe etotal
dump 2 all custom 1000 graphene_single_layer_ReaxFF_795_C_temp_20K.lammpstrj id type x y z ### MODIFY FILE NAME ###
minimize 1.0e-6 1.0e-6 100 1000

CITE-CITE-CITE-CITE-CITE-CITE-CITE-CITE-CITE-CITE-CITE-CITE-CITE

Your simulation uses code contributions which should be cited:

- pair reaxff command:

@Article{Aktulga12,
 author = {H. M. Aktulga, J. C. Fogarty, S. A. Pandit, A. Y. Grama},
 title = {Parallel reactive molecular dynamics: Numerical methods and algorithmic techniques},
 journal = {Parallel Computing},
 year =    2012,
 volume =  38,
 pages =   {245--259}
}

- fix qeq/reaxff command:

@Article{Aktulga12,
 author = {H. M. Aktulga, J. C. Fogarty, S. A. Pandit, A. Y. Grama},
 title = {Parallel reactive molecular dynamics: Numerical methods and algorithmic techniques},
 journal = {Parallel Computing},
 year =    2012,
 volume =  38,
 pages =   {245--259}
}

CITE-CITE-CITE-CITE-CITE-CITE-CITE-CITE-CITE-CITE-CITE-CITE-CITE

WARNING: Using 'neigh_modify every 1 delay 0 check yes' setting during minimization (src/min.cpp:187)
Neighbor list info ...
  update every 1 steps, delay 0 steps, check yes
  max neighbors/atom: 10000, page size: 100000
  master list distance cutoff = 10.4
  ghost atom cutoff = 10.4
  binsize = 5.2, bins = 10 10 1
  2 neighbor lists, perpetual/occasional/extra = 2 0 0
  (1) pair reax/c, perpetual
      attributes: half, newton off, ghost
      pair build: half/bin/newtoff/ghost
      stencil: full/ghost/bin/3d
      bin: standard
  (2) fix qeq/reax, perpetual, copy from (1)
      attributes: half, newton off
      pair build: copy
      stencil: none
      bin: none
Per MPI rank memory allocation (min/avg/max) = 36.37 | 41.41 | 47.38 Mbytes
   Step          Temp          Press          Volume           Lx          Density         PotEng         TotEng    
         0   923            34054.396      6724.9433      48.731617      2.3577398     -151766.67     -149582.14    
        11   923            35396.792      6724.9433      48.731617      2.3577398     -151904.55     -149720.03    
Loop time of 2.19524 on 64 procs for 11 steps with 795 atoms

98.1% CPU use with 64 MPI tasks x 1 OpenMP threads

Minimization stats:
  Stopping criterion = energy tolerance
  Energy initial, next-to-last, final = 
     -151766.666472543  -151904.508881892  -151904.547898656
  Force two-norm initial, final = 279.94165 356.09863
  Force max component initial, final = 137.99181 55.448555
  Final line search alpha, max atom move = 0.00038853166 0.021543519
  Iterations, force evaluations = 11 32

MPI task timing breakdown:
Section |  min time  |  avg time  |  max time  |%varavg| %total
---------------------------------------------------------------
Pair    | 0.77503    | 1.2759     | 1.7089     |  18.7 | 58.12
Neigh   | 0.011599   | 0.018453   | 0.026533   |   2.3 |  0.84
Comm    | 0.10294    | 0.48872    | 0.91666    |  27.4 | 22.26
Output  | 0          | 0          | 0          |   0.0 |  0.00
Modify  | 0.31202    | 0.32014    | 0.32694    |   0.5 | 14.58
Other   |            | 0.092      |            |       |  4.19

Nlocal:        12.4219 ave          15 max          10 min
Histogram: 15 0 0 0 22 0 12 0 0 15
Nghost:        2194.12 ave        2559 max        1869 min
Histogram: 2 8 9 4 12 12 5 4 6 2
Neighs:        6807.34 ave        8856 max        4476 min
Histogram: 4 8 3 7 7 13 5 2 0 15

Total # of neighbors = 435670
Ave neighs/atom = 548.01258
Neighbor list builds = 1
Dangerous builds = 0

fix 1 all nvt temp 20.0 20.0 $(100.0*dt)  ### MODIFY INIT TEMP, FINAL TEMP ###
fix 1 all nvt temp 20.0 20.0 25  
run 400000
Per MPI rank memory allocation (min/avg/max) = 35.25 | 40.29 | 46.26 Mbytes
   Step          Temp          Press          Volume           Lx          Density         PotEng         TotEng    
        11   923            35396.792      6724.9433      48.731617      2.3577398     -151904.55     -149720.03    
       100   228.52543      68208.757      6724.9433      48.731617      2.3577398     -151608.76     -151067.89    
       200   103.19105      36863.608      6724.9433      48.731617      2.3577398     -152133.33     -151889.11    
       300   75.582889     -7943.5847      6724.9433      48.731617      2.3577398     -152421.44     -152242.55    
       400   55.907529      13924.987      6724.9433      48.731617      2.3577398     -152588.83     -152456.51    
       500   52.488401      43053.822      6724.9433      48.731617      2.3577398     -152785.15     -152660.92    
       600   37.652434     -5167.6254      6724.9433      48.731617      2.3577398     -152843.81     -152754.7     
       700   23.761335      39762.777      6724.9433      48.731617      2.3577398     -152861.44     -152805.21    
       800   24.651353      13650.542      6724.9433      48.731617      2.3577398     -152897.88     -152839.53    
       900   17.778797      32367.645      6724.9433      48.731617      2.3577398     -152903.49     -152861.41    
      1000   17.312941      7915.1849      6724.9433      48.731617      2.3577398     -152908.01     -152867.03    
      1100   17.972475      42684.734      6724.9433      48.731617      2.3577398     -152900.82     -152858.28    
      1200   23.392492      14329.651      6724.9433      48.731617      2.3577398     -152898.5      -152843.13    
      1300   25.201776      38279.277      6724.9433      48.731617      2.3577398     -152897.01     -152837.37    
      1400   21.070659      14280.783      6724.9433      48.731617      2.3577398     -152894.21     -152844.34    
      1500   18.863957      19636.99       6724.9433      48.731617      2.3577398     -152897.72     -152853.07    
      1600   17.988273      30646.378      6724.9433      48.731617      2.3577398     -152897.77     -152855.19    
      1700   19.636482      16757.06       6724.9433      48.731617      2.3577398     -152897.09     -152850.61    
      1800   21.667904      43980.606      6724.9433      48.731617      2.3577398     -152895.74     -152844.46    
      1900   20.327981      9330.0201      6724.9433      48.731617      2.3577398     -152891.81     -152843.69    
      2000   19.743375      27665.831      6724.9433      48.731617      2.3577398     -152895.77     -152849.04    
      2100   18.557364      5373.5249      6724.9433      48.731617      2.3577398     -152898.14     -152854.22    
      2200   18.603752      50973.041      6724.9433      48.731617      2.3577398     -152898.44     -152854.41    
      2300   20.368768     -779.40116      6724.9433      48.731617      2.3577398     -152897.25     -152849.05    
      2400   21.511633      36026.448      6724.9433      48.731617      2.3577398     -152894.12     -152843.2     
      2500   21.282695      17544.566      6724.9433      48.731617      2.3577398     -152892.92     -152842.55    
      2600   20.701317      21473.132      6724.9433      48.731617      2.3577398     -152897.1      -152848.1     
      2700   18.947043      33988.429      6724.9433      48.731617      2.3577398     -152898.1      -152853.26    
      2800   19.075652      28121.035      6724.9433      48.731617      2.3577398     -152898.95     -152853.8     
      2900   20.156679      25182.333      6724.9433      48.731617      2.3577398     -152898.15     -152850.44    
      3000   21.189904      8604.4592      6724.9433      48.731617      2.3577398     -152897.05     -152846.9     
      3100   21.195439      31296.591      6724.9433      48.731617      2.3577398     -152896.27     -152846.11    
      3200   19.676556      7936.8919      6724.9433      48.731617      2.3577398     -152894.61     -152848.04    
      3300   19.35615       39876.205      6724.9433      48.731617      2.3577398     -152896.86     -152851.05    
      3400   19.020361      10594.816      6724.9433      48.731617      2.3577398     -152897.59     -152852.58    
      3500   19.726088      30327.654      6724.9433      48.731617      2.3577398     -152896.91     -152850.22    
      3600   21.386868      27100.866      6724.9433      48.731617      2.3577398     -152896.49     -152845.87    
      3700   20.08104       19139.527      6724.9433      48.731617      2.3577398     -152893.42     -152845.89    
      3800   18.429895      14004.139      6724.9433      48.731617      2.3577398     -152893.58     -152849.96    
      3900   19.112537      28042.64       6724.9433      48.731617      2.3577398     -152897.82     -152852.58    
      4000   19.050227      21089.863      6724.9433      48.731617      2.3577398     -152896.75     -152851.66    
      4100   18.794491      12845.36       6724.9433      48.731617      2.3577398     -152893.66     -152849.18    
      4200   20.612181      33974.876      6724.9433      48.731617      2.3577398     -152896.22     -152847.43    
      4300   21.420019      5191.2442      6724.9433      48.731617      2.3577398     -152897.91     -152847.22    
      4400   20.74158       23034.182      6724.9433      48.731617      2.3577398     -152897.8      -152848.71    
      4500   19.589226      26892.419      6724.9433      48.731617      2.3577398     -152896.46     -152850.1     
      4600   19.469178      38466.603      6724.9433      48.731617      2.3577398     -152895.73     -152849.65    
      4700   21.412197     -1100.3966      6724.9433      48.731617      2.3577398     -152900.2      -152849.52    
      4800   20.712409      32234.85       6724.9433      48.731617      2.3577398     -152900.64     -152851.62    
      4900   19.000459      23247.344      6724.9433      48.731617      2.3577398     -152897.25     -152852.28    
      5000   19.720147      16632.369      6724.9433      48.731617      2.3577398     -152896.65     -152849.97    
      5100   20.558632      33695.955      6724.9433      48.731617      2.3577398     -152895.87     -152847.21    
      5200   20.265967      20894.68       6724.9433      48.731617      2.3577398     -152893.51     -152845.55    
      5300   20.557677      29058.976      6724.9433      48.731617      2.3577398     -152895.53     -152846.88    
      5400   20.589861      4468.7174      6724.9433      48.731617      2.3577398     -152899.74     -152851.01    
      5500   19.067279      33579.154      6724.9433      48.731617      2.3577398     -152898.75     -152853.62    
      5600   19.406339      4387.7041      6724.9433      48.731617      2.3577398     -152897.6      -152851.67    
      5700   20.369536      48202.315      6724.9433      48.731617      2.3577398     -152897.15     -152848.94    
      5800   23.026192      12471.544      6724.9433      48.731617      2.3577398     -152906.35     -152851.85    
      5900   20.175359      29435.956      6724.9433      48.731617      2.3577398     -152910.32     -152862.57    
      6000   18.039095      20891.895      6724.9433      48.731617      2.3577398     -152913.05     -152870.35    
      6100   18.538923      31569.288      6724.9433      48.731617      2.3577398     -152913.22     -152869.34    
      6200   21.377004      17664.155      6724.9433      48.731617      2.3577398     -152912.52     -152861.92    
      6300   21.375611      27186.688      6724.9433      48.731617      2.3577398     -152906.81     -152856.22    
      6400   20.849128      21539.997      6724.9433      48.731617      2.3577398     -152906.6      -152857.26    
      6500   19.417519      21379.984      6724.9433      48.731617      2.3577398     -152909.96     -152864.01    
      6600   18.774623      29925.825      6724.9433      48.731617      2.3577398     -152911.68     -152867.25    
      6700   19.428773      19797.768      6724.9433      48.731617      2.3577398     -152909.87     -152863.89    
      6800   20.479248      13410.954      6724.9433      48.731617      2.3577398     -152906.24     -152857.77    
      6900   21.582352      24064.57       6724.9433      48.731617      2.3577398     -152905.22     -152854.14    
      7000   20.880321      24520.632      6724.9433      48.731617      2.3577398     -152906.99     -152857.57    
      7100   20.596893      12743.551      6724.9433      48.731617      2.3577398     -152914.33     -152865.58    
      7200   35.748937      15616.22       6724.9433      48.731617      2.3577398     -152964.63     -152880.02    
      7300   22.222253      20818.05       6724.9433      48.731617      2.3577398     -152972.84     -152920.25    
      7400   27.017525      12846.629      6724.9433      48.731617      2.3577398     -153014.08     -152950.14    
      7500   23.641302      6651.6489      6724.9433      48.731617      2.3577398     -153044.24     -152988.28    
      7600   21.796614      16127.448      6724.9433      48.731617      2.3577398     -153072.91     -153021.32    
      7700   20.832285      9827.1961      6724.9433      48.731617      2.3577398     -153091.71     -153042.41    
      7800   19.374749      20550.029      6724.9433      48.731617      2.3577398     -153101.87     -153056.02    
      7900   19.030046      1690.9445      6724.9433      48.731617      2.3577398     -153108.72     -153063.68    
      8000   17.339681      18363.412      6724.9433      48.731617      2.3577398     -153104.03     -153062.99    
      8100   19.644463      20634.077      6724.9433      48.731617      2.3577398     -153101.7      -153055.2     
      8200   21.724704      22108.175      6724.9433      48.731617      2.3577398     -153098.35     -153046.93    
      8300   22.665334      4957.7664      6724.9433      48.731617      2.3577398     -153101.46     -153047.82    
      8400   20.943608      33347.944      6724.9433      48.731617      2.3577398     -153105.52     -153055.96    
      8500   18.098708      4948.6433      6724.9433      48.731617      2.3577398     -153105.99     -153063.15    
      8600   18.761276      33779.359      6724.9433      48.731617      2.3577398     -153107.13     -153062.73    
      8700   20.196726      9081.4344      6724.9433      48.731617      2.3577398     -153102.57     -153054.77    
      8800   21.381641      26119.28       6724.9433      48.731617      2.3577398     -153098.64     -153048.03    
      8900   22.280298      7006.8858      6724.9433      48.731617      2.3577398     -153102.36     -153049.63    
      9000   19.033864      21215.027      6724.9433      48.731617      2.3577398     -153102.64     -153057.59    
      9100   18.728467      15332.686      6724.9433      48.731617      2.3577398     -153107.34     -153063.02    
      9200   19.067051      20545.162      6724.9433      48.731617      2.3577398     -153107.28     -153062.16    
      9300   19.156253      10346.407      6724.9433      48.731617      2.3577398     -153100.99     -153055.65    
      9400   21.012238     -8510.9585      6724.9433      48.731617      2.3577398     -153098.98     -153049.25    
      9500   21.959986      24367.545      6724.9433      48.731617      2.3577398     -153101.65     -153049.67    
      9600   20.310095      15453.67       6724.9433      48.731617      2.3577398     -153103.4      -153055.33    
      9700   19.162756      20576.359      6724.9433      48.731617      2.3577398     -153106.62     -153061.27    
      9800   18.546006      25633.015      6724.9433      48.731617      2.3577398     -153105.63     -153061.74    
      9900   20.155091      23907.469      6724.9433      48.731617      2.3577398     -153104.84     -153057.14    
     10000   21.16045       5125.8847      6724.9433      48.731617      2.3577398     -153102.74     -153052.65    
     10100   21.412912      24573.067      6724.9433      48.731617      2.3577398     -153102.39     -153051.71    
     10200   20.156442      13169.249      6724.9433      48.731617      2.3577398     -153101.51     -153053.81    
     10300   19.257986      20539.221      6724.9433      48.731617      2.3577398     -153102.92     -153057.34    
     10400   19.732768      13375.988      6724.9433      48.731617      2.3577398     -153105.04     -153058.33    
     10500   19.81888       950.57739      6724.9433      48.731617      2.3577398     -153103.61     -153056.71    
     10600   20.653782      20435.039      6724.9433      48.731617      2.3577398     -153101.96     -153053.08    
     10700   20.650936      7513.1595      6724.9433      48.731617      2.3577398     -153101.1      -153052.23    
     10800   19.213414      19363.017      6724.9433      48.731617      2.3577398     -153101.86     -153056.39    
     10900   19.292847      6022.3839      6724.9433      48.731617      2.3577398     -153106.67     -153061.01    
     11000   18.08679       13332.719      6724.9433      48.731617      2.3577398     -153105.07     -153062.26    
     11100   19.767278      11884.358      6724.9433      48.731617      2.3577398     -153105.95     -153059.17    
     11200   21.098154      12627.311      6724.9433      48.731617      2.3577398     -153102.93     -153053       
     11300   21.419858      20881.905      6724.9433      48.731617      2.3577398     -153100.86     -153050.16    
     11400   20.415685      19593.13       6724.9433      48.731617      2.3577398     -153100.31     -153051.99    
     11500   19.147389      24852.073      6724.9433      48.731617      2.3577398     -153101.9      -153056.58    
     11600   19.610923      17092.069      6724.9433      48.731617      2.3577398     -153105.89     -153059.48    
     11700   19.257173      19228.188      6724.9433      48.731617      2.3577398     -153104.11     -153058.53    
     11800   19.815989      13878.436      6724.9433      48.731617      2.3577398     -153101.8      -153054.9     
     11900   21.317057      20528.233      6724.9433      48.731617      2.3577398     -153102.33     -153051.88    
     12000   20.446792      10995.857      6724.9433      48.731617      2.3577398     -153102.29     -153053.9     
     12100   18.994603      8085.1977      6724.9433      48.731617      2.3577398     -153103.4      -153058.44    
     12200   19.288183      3528.5051      6724.9433      48.731617      2.3577398     -153104.4      -153058.75    
     12300   20.245878      13364.911      6724.9433      48.731617      2.3577398     -153102.69     -153054.77    
     12400   21.572018      6660.8337      6724.9433      48.731617      2.3577398     -153102.83     -153051.78    
     12500   20.901491      16981.555      6724.9433      48.731617      2.3577398     -153103.33     -153053.86    
     12600   19.239729      14121.041      6724.9433      48.731617      2.3577398     -153104.29     -153058.75    
     12700   18.584173      12236.695      6724.9433      48.731617      2.3577398     -153104.95     -153060.97    
     12800   18.225499      16160.878      6724.9433      48.731617      2.3577398     -153101.29     -153058.15    
     12900   20.702888      15833.437      6724.9433      48.731617      2.3577398     -153100.69     -153051.69    
     13000   20.604046      16197.231      6724.9433      48.731617      2.3577398     -153097.2      -153048.44    
     13100   20.115087      21178.976      6724.9433      48.731617      2.3577398     -153099.24     -153051.63    
     13200   20.832859      11320.034      6724.9433      48.731617      2.3577398     -153106.02     -153056.72    
     13300   18.964051      16234.614      6724.9433      48.731617      2.3577398     -153104.61     -153059.73    
     13400   18.975321      20442.005      6724.9433      48.731617      2.3577398     -153103.46     -153058.55    
     13500   21.034092      18713.594      6724.9433      48.731617      2.3577398     -153104.2      -153054.42    
     13600   20.957009      12331.764      6724.9433      48.731617      2.3577398     -153102.19     -153052.59    
     13700   19.661876      18870.343      6724.9433      48.731617      2.3577398     -153101.25     -153054.72    
     13800   19.335033      10182.34       6724.9433      48.731617      2.3577398     -153102.96     -153057.19    
     13900   19.142104      8347.2514      6724.9433      48.731617      2.3577398     -153102.68     -153057.37    
     14000   20.092215      24939.803      6724.9433      48.731617      2.3577398     -153101.81     -153054.26    
     14100   21.542394      9890.5078      6724.9433      48.731617      2.3577398     -153101.13     -153050.15    
     14200   21.267941      16275.444      6724.9433      48.731617      2.3577398     -153099.65     -153049.31    
     14300   20.624003      16105.958      6724.9433      48.731617      2.3577398     -153103.51     -153054.69    
     14400   18.430895      18279.217      6724.9433      48.731617      2.3577398     -153103.61     -153059.99    
     14500   19.094168      19217.795      6724.9433      48.731617      2.3577398     -153105.52     -153060.33    
     14600   18.953301      15679.273      6724.9433      48.731617      2.3577398     -153101.54     -153056.68    
     14700   20.620217      24166.229      6724.9433      48.731617      2.3577398     -153102.23     -153053.43    
     14800   20.895707      25378.882      6724.9433      48.731617      2.3577398     -153101.84     -153052.39    
     14900   20.577168      27788.12       6724.9433      48.731617      2.3577398     -153102.85     -153054.15    
     15000   19.103288      12257.758      6724.9433      48.731617      2.3577398     -153103.56     -153058.35    
     15100   18.488498      14765.197      6724.9433      48.731617      2.3577398     -153104.2      -153060.44    
     15200   19.501804      10183.281      6724.9433      48.731617      2.3577398     -153103.43     -153057.27    
     15300   20.330912      17504.19       6724.9433      48.731617      2.3577398     -153100.93     -153052.81    
     15400   20.492873      13233.461      6724.9433      48.731617      2.3577398     -153100.28     -153051.77    
     15500   20.255863      16166.574      6724.9433      48.731617      2.3577398     -153102.51     -153054.57    
     15600   18.769326      12197.526      6724.9433      48.731617      2.3577398     -153102.79     -153058.36    
     15700   19.258704      8941.9282      6724.9433      48.731617      2.3577398     -153104.67     -153059.09    
     15800   19.60183       21043.117      6724.9433      48.731617      2.3577398     -153102.99     -153056.6     
     15900   21.359391      17362.27       6724.9433      48.731617      2.3577398     -153104.14     -153053.59    
     16000   20.826262      18408.812      6724.9433      48.731617      2.3577398     -153102.22     -153052.93    
     16100   20.447843      10424.573      6724.9433      48.731617      2.3577398     -153103.51     -153055.11    
     16200   19.164613      20727.425      6724.9433      48.731617      2.3577398     -153103.14     -153057.78    
     16300   19.332394      12478.231      6724.9433      48.731617      2.3577398     -153104.36     -153058.6     
     16400   19.491614      30583.962      6724.9433      48.731617      2.3577398     -153103.78     -153057.65    
     16500   20.43671       16933.854      6724.9433      48.731617      2.3577398     -153103.85     -153055.48    
     16600   20.060858      17821.333      6724.9433      48.731617      2.3577398     -153102.51     -153055.03    
     16700   19.606246      9230.7636      6724.9433      48.731617      2.3577398     -153102.36     -153055.96    
     16800   20.090628      10232.997      6724.9433      48.731617      2.3577398     -153102.43     -153054.88    
     16900   20.096248     -1111.4451      6724.9433      48.731617      2.3577398     -153100.17     -153052.61    
     17000   20.759886      21475.626      6724.9433      48.731617      2.3577398     -153100.44     -153051.31    
     17100   20.233435      1810.1068      6724.9433      48.731617      2.3577398     -153101.94     -153054.05    
     17200   18.88784       22133.611      6724.9433      48.731617      2.3577398     -153104.3      -153059.59    
     17300   18.782469      4720.545       6724.9433      48.731617      2.3577398     -153106.38     -153061.93    
     17400   18.224595      16569.925      6724.9433      48.731617      2.3577398     -153102.11     -153058.97    
     17500   20.437225      13243.067      6724.9433      48.731617      2.3577398     -153100.31     -153051.94    
     17600   21.070896      27638.177      6724.9433      48.731617      2.3577398     -153097.24     -153047.37    
     17700   20.465024      20496.06       6724.9433      48.731617      2.3577398     -153098.28     -153049.85    
     17800   19.906369      3265.3779      6724.9433      48.731617      2.3577398     -153102.21     -153055.1     
     17900   19.182722      28938.944      6724.9433      48.731617      2.3577398     -153104.4      -153059       
     18000   19.331911      6488.8755      6724.9433      48.731617      2.3577398     -153105.01     -153059.25    
     18100   19.501378      25775.087      6724.9433      48.731617      2.3577398     -153103.05     -153056.9     
     18200   19.91547       10161.233      6724.9433      48.731617      2.3577398     -153103.24     -153056.1     
     18300   19.623411      18490.78       6724.9433      48.731617      2.3577398     -153102.21     -153055.76    
     18400   20.003642     -2828.6658      6724.9433      48.731617      2.3577398     -153102.17     -153054.83    
     18500   19.764614      25634.855      6724.9433      48.731617      2.3577398     -153099.1      -153052.33    
     18600   20.908681     -3285.9377      6724.9433      48.731617      2.3577398     -153100.62     -153051.13    
     18700   21.206362      20663.76       6724.9433      48.731617      2.3577398     -153103.88     -153053.69    
     18800   19.759877      19570.345      6724.9433      48.731617      2.3577398     -153104.15     -153057.38    
     18900   18.315563      15942.337      6724.9433      48.731617      2.3577398     -153104.83     -153061.48    
     19000   19.574828      16322.454      6724.9433      48.731617      2.3577398     -153108.56     -153062.23    
     19100   19.663265      19433.78       6724.9433      48.731617      2.3577398     -153104.73     -153058.19    
     19200   20.183927      24102.749      6724.9433      48.731617      2.3577398     -153099.48     -153051.71    
     19300   21.434679     -2313.1157      6724.9433      48.731617      2.3577398     -153098.99     -153048.26    
     19400   20.412427      30579.226      6724.9433      48.731617      2.3577398     -153099.64     -153051.33    
     19500   19.27285       9662.1168      6724.9433      48.731617      2.3577398     -153101.42     -153055.81    
     19600   19.777354      25990.045      6724.9433      48.731617      2.3577398     -153105.98     -153059.17    
     19700   19.343025      10621.5        6724.9433      48.731617      2.3577398     -153105.92     -153060.14    
     19800   20.247985      12503.558      6724.9433      48.731617      2.3577398     -153105.57     -153057.64    
     19900   20.389069      21672.493      6724.9433      48.731617      2.3577398     -153102.56     -153054.3     
     20000   21.183418      20023.164      6724.9433      48.731617      2.3577398     -153102.12     -153051.98    
     20100   20.832065      3639.5346      6724.9433      48.731617      2.3577398     -153101.81     -153052.5     
     20200   19.87916       13576.996      6724.9433      48.731617      2.3577398     -153102.53     -153055.48    
     20300   19.40252       16943.873      6724.9433      48.731617      2.3577398     -153103.45     -153057.52    
     20400   20.976098      11974.668      6724.9433      48.731617      2.3577398     -153105.8      -153056.15    
     20500   20.677661      19654.072      6724.9433      48.731617      2.3577398     -153103.73     -153054.79    
     20600   20.044758      13785.345      6724.9433      48.731617      2.3577398     -153101.63     -153054.19    
     20700   19.777632      17575.353      6724.9433      48.731617      2.3577398     -153101.77     -153054.96    
     20800   20.053492      14825.137      6724.9433      48.731617      2.3577398     -153103.81     -153056.35    
     20900   19.674696      37315.981      6724.9433      48.731617      2.3577398     -153103.06     -153056.49    
     21000   19.646967      10897.438      6724.9433      48.731617      2.3577398     -153101.64     -153055.14    
     21100   20.665095      29856.109      6724.9433      48.731617      2.3577398     -153102.55     -153053.64    
     21200   20.251918      14913.207      6724.9433      48.731617      2.3577398     -153103.37     -153055.44    
     21300   19.338274      5582.0787      6724.9433      48.731617      2.3577398     -153104.46     -153058.69    
     21400   19.602455      17350.479      6724.9433      48.731617      2.3577398     -153106.55     -153060.15    
     21500   19.123352      6908.7662      6724.9433      48.731617      2.3577398     -153103.45     -153058.19    
     21600   19.91947       19557.045      6724.9433      48.731617      2.3577398     -153101.15     -153054.01    
     21700   21.340502      14347.48       6724.9433      48.731617      2.3577398     -153101.12     -153050.61    
     21800   20.000599      14637.113      6724.9433      48.731617      2.3577398     -153099.27     -153051.94    
     21900   19.539247      1421.5364      6724.9433      48.731617      2.3577398     -153102.1      -153055.86    
     22000   19.252204      39189.302      6724.9433      48.731617      2.3577398     -153105.34     -153059.78    
     22100   19.285181      3822.562       6724.9433      48.731617      2.3577398     -153106.06     -153060.42    
     22200   19.820035      34664.878      6724.9433      48.731617      2.3577398     -153104.58     -153057.67    
     22300   20.516512      14342.279      6724.9433      48.731617      2.3577398     -153101.44     -153052.88    
     22400   20.629597      26472.445      6724.9433      48.731617      2.3577398     -153098.47     -153049.65    
     22500   20.29671       3852.2255      6724.9433      48.731617      2.3577398     -153099.52     -153051.48    
     22600   19.870346      29900.728      6724.9433      48.731617      2.3577398     -153102.81     -153055.78    
     22700   20.013171      12172.722      6724.9433      48.731617      2.3577398     -153105.84     -153058.47    
     22800   19.651782      7212.7785      6724.9433      48.731617      2.3577398     -153105.17     -153058.66    
     22900   19.687911      28214.614      6724.9433      48.731617      2.3577398     -153103.47     -153056.88    
     23000   20.173445     -1087.2713      6724.9433      48.731617      2.3577398     -153101.22     -153053.48    
     23100   20.796961      34833.417      6724.9433      48.731617      2.3577398     -153100.96     -153051.74    
     23200   20.385564      286.26965      6724.9433      48.731617      2.3577398     -153100.43     -153052.18    
     23300   19.735445      41910.246      6724.9433      48.731617      2.3577398     -153101.9      -153055.19    
     23400   20.429428      3185.4789      6724.9433      48.731617      2.3577398     -153105.69     -153057.34    
     23500   20.250653      33403.637      6724.9433      48.731617      2.3577398     -153105.17     -153057.24    
     23600   20.116405      7837.9193      6724.9433      48.731617      2.3577398     -153103.93     -153056.32    
     23700   19.888966      22207.553      6724.9433      48.731617      2.3577398     -153103.4      -153056.33    
     23800   19.625905      14031.581      6724.9433      48.731617      2.3577398     -153103.12     -153056.67    
     23900   20.74366       17160.554      6724.9433      48.731617      2.3577398     -153104.06     -153054.96    
     24000   20.598728      15822.278      6724.9433      48.731617      2.3577398     -153102.18     -153053.43    
     24100   20.318203      12018.915      6724.9433      48.731617      2.3577398     -153101.1      -153053.01    
     24200   20.354568      11536.206      6724.9433      48.731617      2.3577398     -153101.8      -153053.62    
     24300   19.692768      19307.34       6724.9433      48.731617      2.3577398     -153102.23     -153055.62    
     24400   19.876826      26610.254      6724.9433      48.731617      2.3577398     -153104.07     -153057.02    
     24500   19.679515      7075.4347      6724.9433      48.731617      2.3577398     -153104.19     -153057.62    
     24600   19.391371      21975.526      6724.9433      48.731617      2.3577398     -153103.19     -153057.3     
     24700   20.262317      12539.664      6724.9433      48.731617      2.3577398     -153104.22     -153056.26    
     24800   19.584152      7220.8489      6724.9433      48.731617      2.3577398     -153102.2      -153055.85    
     24900   20.197622      17246.77       6724.9433      48.731617      2.3577398     -153101.97     -153054.17    
     25000   20.654084      11609.689      6724.9433      48.731617      2.3577398     -153101.53     -153052.65    
     25100   20.465249      8103.106       6724.9433      48.731617      2.3577398     -153101.08     -153052.64    
     25200   20.614272      10014.097      6724.9433      48.731617      2.3577398     -153104.43     -153055.64    
     25300   19.330507      10982.29       6724.9433      48.731617      2.3577398     -153105.59     -153059.84    
     25400   19.339102      24448.857      6724.9433      48.731617      2.3577398     -153107.37     -153061.6     
     25500   20.165884      22661.794      6724.9433      48.731617      2.3577398     -153107.55     -153059.82    
     25600   20.565988      22706.76       6724.9433      48.731617      2.3577398     -153104.33     -153055.66    
     25700   21.108718      25095.082      6724.9433      48.731617      2.3577398     -153100.58     -153050.62    
     25800   21.535909      20850.037      6724.9433      48.731617      2.3577398     -153100.25     -153049.28    
     25900   20.249364      11531.394      6724.9433      48.731617      2.3577398     -153100.78     -153052.86    
     26000   18.992928      11115.547      6724.9433      48.731617      2.3577398     -153103.02     -153058.07    
     26100   19.379779      23054.271      6724.9433      48.731617      2.3577398     -153106.18     -153060.32    
     26200   19.681305      15173.675      6724.9433      48.731617      2.3577398     -153104.41     -153057.83    
     26300   20.203057      8145.7041      6724.9433      48.731617      2.3577398     -153101.85     -153054.04    
     26400   20.514551      13608.826      6724.9433      48.731617      2.3577398     -153101.04     -153052.49    
     26500   19.928724      11660.863      6724.9433      48.731617      2.3577398     -153100.69     -153053.52    
     26600   19.659413      23563.282      6724.9433      48.731617      2.3577398     -153102.03     -153055.5     
     26700   19.610529      660.1159       6724.9433      48.731617      2.3577398     -153102.54     -153056.12    
     26800   19.988289      27065.594      6724.9433      48.731617      2.3577398     -153102.62     -153055.31    
     26900   20.153094      10049.165      6724.9433      48.731617      2.3577398     -153100.87     -153053.17    
     27000   19.977782      24445.571      6724.9433      48.731617      2.3577398     -153098.41     -153051.13    
     27100   21.04432       8958.1951      6724.9433      48.731617      2.3577398     -153102.2      -153052.4     
     27200   19.601296      28334.723      6724.9433      48.731617      2.3577398     -153102.27     -153055.88    
     27300   19.824637      6660.3297      6724.9433      48.731617      2.3577398     -153105.79     -153058.87    
     27400   18.412463      19162.913      6724.9433      48.731617      2.3577398     -153102.44     -153058.86    
     27500   19.91668       9033.201       6724.9433      48.731617      2.3577398     -153101.8      -153054.66    
     27600   20.52616       9831.3225      6724.9433      48.731617      2.3577398     -153099.37     -153050.79    
     27700   20.493416      21999.244      6724.9433      48.731617      2.3577398     -153098.73     -153050.22    
     27800   19.72797       15645.488      6724.9433      48.731617      2.3577398     -153101.87     -153055.18    
     27900   18.4503        24653.111      6724.9433      48.731617      2.3577398     -153103.58     -153059.91    
     28000   18.947228      14620.11       6724.9433      48.731617      2.3577398     -153105.03     -153060.19    
     28100   20.086847      29081.614      6724.9433      48.731617      2.3577398     -153104.38     -153056.84    
     28200   20.861259     -696.3126       6724.9433      48.731617      2.3577398     -153101.5      -153052.13    
     28300   20.396096      28996.122      6724.9433      48.731617      2.3577398     -153100.87     -153052.6     
     28400   20.131944      6732.5139      6724.9433      48.731617      2.3577398     -153104.62     -153056.97    
     28500   19.296678      22904.665      6724.9433      48.731617      2.3577398     -153104.42     -153058.75    
     28600   19.73984       12021.508      6724.9433      48.731617      2.3577398     -153104.42     -153057.7     
     28700   19.466379      17537.236      6724.9433      48.731617      2.3577398     -153101.11     -153055.03    
     28800   20.653196      12233.276      6724.9433      48.731617      2.3577398     -153101.52     -153052.64    
     28900   20.730044      19926.414      6724.9433      48.731617      2.3577398     -153102.77     -153053.7     
     29000   20.343961      6832.3635      6724.9433      48.731617      2.3577398     -153104.94     -153056.79    
     29100   19.302376      13598.007      6724.9433      48.731617      2.3577398     -153104.55     -153058.86    
     29200   19.750074      23643.031      6724.9433      48.731617      2.3577398     -153104.23     -153057.48    
     29300   20.337993      13281.267      6724.9433      48.731617      2.3577398     -153102.49     -153054.35    
     29400   21.448858      21450.169      6724.9433      48.731617      2.3577398     -153102.84     -153052.08    
     29500   19.661751      13102.328      6724.9433      48.731617      2.3577398     -153101.15     -153054.62    
     29600   19.86012       17443.508      6724.9433      48.731617      2.3577398     -153104.31     -153057.3     
     29700   19.280414      20072.574      6724.9433      48.731617      2.3577398     -153103.76     -153058.13    
     29800   20.294084      1558.0967      6724.9433      48.731617      2.3577398     -153104.54     -153056.5     
     29900   19.961611      15289.202      6724.9433      48.731617      2.3577398     -153102.66     -153055.41    
     30000   20.519372      11982.063      6724.9433      48.731617      2.3577398     -153103.96     -153055.39    
     30100   19.442343      15171.981      6724.9433      48.731617      2.3577398     -153103.15     -153057.14    
     30200   19.688412      4171.7301      6724.9433      48.731617      2.3577398     -153104.72     -153058.12    
     30300   19.375401      24514.788      6724.9433      48.731617      2.3577398     -153103.76     -153057.91    
     30400   20.761279      22314.972      6724.9433      48.731617      2.3577398     -153104.36     -153055.22    
     30500   20.717475      11535.051      6724.9433      48.731617      2.3577398     -153101.66     -153052.63    
     30600   20.529284      9232.3347      6724.9433      48.731617      2.3577398     -153101.05     -153052.46    
     30700   20.080706      16264.947      6724.9433      48.731617      2.3577398     -153102.73     -153055.2     
     30800   19.341218      9264.4829      6724.9433      48.731617      2.3577398     -153104.79     -153059.02    
     30900   18.663773      15284.257      6724.9433      48.731617      2.3577398     -153104.87     -153060.7     
     31000   19.468546      18049.571      6724.9433      48.731617      2.3577398     -153104.62     -153058.54    
     31100   20.21639       22093.205      6724.9433      48.731617      2.3577398     -153102.15     -153054.31    
     31200   20.48022       3911.2416      6724.9433      48.731617      2.3577398     -153099.74     -153051.27    
     31300   20.949841      26429.162      6724.9433      48.731617      2.3577398     -153100.89     -153051.3     
     31400   19.37787       12883.643      6724.9433      48.731617      2.3577398     -153100.74     -153054.87    
     31500   19.767753      25364.44       6724.9433      48.731617      2.3577398     -153104.16     -153057.38    
     31600   19.333382      3390.3455      6724.9433      48.731617      2.3577398     -153103.49     -153057.73    
     31700   20.716572      26324.441      6724.9433      48.731617      2.3577398     -153103.88     -153054.84    
     31800   21.108891      3359.3352      6724.9433      48.731617      2.3577398     -153103.65     -153053.69    
     31900   20.338121      18346.647      6724.9433      48.731617      2.3577398     -153104.14     -153056       
     32000   18.926017      6703.1956      6724.9433      48.731617      2.3577398     -153104.14     -153059.35    
     32100   19.179623      22615.45       6724.9433      48.731617      2.3577398     -153104.25     -153058.85    
     32200   20.324066      14833.844      6724.9433      48.731617      2.3577398     -153103.03     -153054.93    
     32300   20.866053      17571.737      6724.9433      48.731617      2.3577398     -153099.25     -153049.86    
     32400   21.519275      18209.426      6724.9433      48.731617      2.3577398     -153099.93     -153049       
     32500   20.585167      13634.565      6724.9433      48.731617      2.3577398     -153101.76     -153053.04    
     32600   19.734082      20213.693      6724.9433      48.731617      2.3577398     -153104.6      -153057.89    
     32700   18.92603       15301.929      6724.9433      48.731617      2.3577398     -153104.63     -153059.84    
     32800   19.4579        18883.209      6724.9433      48.731617      2.3577398     -153103.35     -153057.29    
     32900   20.263446      17883.757      6724.9433      48.731617      2.3577398     -153100.25     -153052.29    
     33000   21.066771      11226.941      6724.9433      48.731617      2.3577398     -153099.88     -153050.02    
     33100   20.4991        9303.8435      6724.9433      48.731617      2.3577398     -153100.42     -153051.91    
     33200   19.394099      24871.096      6724.9433      48.731617      2.3577398     -153101.66     -153055.76    
     33300   18.751298      12811.105      6724.9433      48.731617      2.3577398     -153102.43     -153058.05    
     33400   18.759318      21386.433      6724.9433      48.731617      2.3577398     -153102.62     -153058.22    
     33500   19.6017        8474.5503      6724.9433      48.731617      2.3577398     -153101.7      -153055.31    
     33600   20.657559      21688.121      6724.9433      48.731617      2.3577398     -153101.46     -153052.57    
     33700   20.587472      23088.297      6724.9433      48.731617      2.3577398     -153102.14     -153053.41    
     33800   19.810865      23625.113      6724.9433      48.731617      2.3577398     -153103.85     -153056.96    
     33900   19.589802      22092.453      6724.9433      48.731617      2.3577398     -153106.16     -153059.8     
     34000   19.343577      14255.49       6724.9433      48.731617      2.3577398     -153104.95     -153059.17    
     34100   20.018067      11753.792      6724.9433      48.731617      2.3577398     -153103.85     -153056.48    
     34200   20.072648      1543.3856      6724.9433      48.731617      2.3577398     -153101.64     -153054.13    
     34300   20.097982      21417.562      6724.9433      48.731617      2.3577398     -153100.44     -153052.87    
     34400   20.906434      4438.9809      6724.9433      48.731617      2.3577398     -153103.57     -153054.09    
     34500   20.133019      16123.83       6724.9433      48.731617      2.3577398     -153105.55     -153057.89    
     34600   18.997605      19555.179      6724.9433      48.731617      2.3577398     -153104.91     -153059.95    
     34700   19.558888      15908.811      6724.9433      48.731617      2.3577398     -153105.36     -153059.07    
     34800   19.964255      14246.159      6724.9433      48.731617      2.3577398     -153102.61     -153055.36    
     34900   20.177082      22416.114      6724.9433      48.731617      2.3577398     -153100.69     -153052.93    
     35000   19.997636      19588.705      6724.9433      48.731617      2.3577398     -153100.86     -153053.53    
     35100   19.948093      17077.311      6724.9433      48.731617      2.3577398     -153102.12     -153054.91    
     35200   19.534277      25195.841      6724.9433      48.731617      2.3577398     -153102.87     -153056.64    
     35300   20.758711      15784.991      6724.9433      48.731617      2.3577398     -153105.64     -153056.51    
     35400   20.382726      14707.492      6724.9433      48.731617      2.3577398     -153104.35     -153056.11    
     35500   20.395738      30093.824      6724.9433      48.731617      2.3577398     -153105.17     -153056.89    
     35600   19.385694      8396.8697      6724.9433      48.731617      2.3577398     -153104.46     -153058.58    
     35700   19.010857      15886.243      6724.9433      48.731617      2.3577398     -153104.44     -153059.45    
     35800   18.938278      27735.167      6724.9433      48.731617      2.3577398     -153101.61     -153056.79    
     35900   20.72937       14180.731      6724.9433      48.731617      2.3577398     -153102.27     -153053.21    
     36000   20.552873      9797.873       6724.9433      48.731617      2.3577398     -153100.7      -153052.06    
     36100   19.784818      17763.47       6724.9433      48.731617      2.3577398     -153100.86     -153054.03    
     36200   18.326334      11674.027      6724.9433      48.731617      2.3577398     -153099.75     -153056.37    
     36300   20.265835      7368.2305      6724.9433      48.731617      2.3577398     -153105.31     -153057.34    
     36400   19.380061      15175.61       6724.9433      48.731617      2.3577398     -153104.24     -153058.37    
     36500   19.312721      19234.022      6724.9433      48.731617      2.3577398     -153102.77     -153057.06    
     36600   20.355441      20230.387      6724.9433      48.731617      2.3577398     -153102.35     -153054.17    
     36700   19.753998      8076.2611      6724.9433      48.731617      2.3577398     -153100.15     -153053.39    
     36800   19.537728      26932.935      6724.9433      48.731617      2.3577398     -153098.2      -153051.96    
     36900   21.054819      15079.445      6724.9433      48.731617      2.3577398     -153100.07     -153050.24    
     37000   20.607301      26093.988      6724.9433      48.731617      2.3577398     -153102.01     -153053.23    
     37100   20.357015      7421.144       6724.9433      48.731617      2.3577398     -153104.69     -153056.51    
     37200   19.944091      29814.619      6724.9433      48.731617      2.3577398     -153105.91     -153058.71    
     37300   19.458903      1480.3393      6724.9433      48.731617      2.3577398     -153105.48     -153059.43    
     37400   18.68927       25550.893      6724.9433      48.731617      2.3577398     -153100.62     -153056.39    
     37500   18.90304       2516.0764      6724.9433      48.731617      2.3577398     -153098.47     -153053.73    
     37600   21.035789      32288.366      6724.9433      48.731617      2.3577398     -153101.44     -153051.66    
     37700   20.92755      -2658.4207      6724.9433      48.731617      2.3577398     -153101.98     -153052.45    
     37800   20.014063      27434.766      6724.9433      48.731617      2.3577398     -153103.35     -153055.99    
     37900   20.060355      12476.497      6724.9433      48.731617      2.3577398     -153104.83     -153057.35    
     38000   19.566489      9266.2545      6724.9433      48.731617      2.3577398     -153104.98     -153058.68    
     38100   19.999971      24370.172      6724.9433      48.731617      2.3577398     -153106.31     -153058.97    
     38200   19.673786      20292.055      6724.9433      48.731617      2.3577398     -153102.69     -153056.13    
     38300   20.718192      21576.133      6724.9433      48.731617      2.3577398     -153102.51     -153053.48    
     38400   20.869304      2489.513       6724.9433      48.731617      2.3577398     -153103        -153053.6     
     38500   19.532537      37564.088      6724.9433      48.731617      2.3577398     -153102.19     -153055.96    
     38600   19.518982      3696.1445      6724.9433      48.731617      2.3577398     -153103.06     -153056.87    
     38700   20.43992       22512.598      6724.9433      48.731617      2.3577398     -153103.53     -153055.15    
     38800   20.797242      10388.652      6724.9433      48.731617      2.3577398     -153100.24     -153051.02    
     38900   21.221748      12752.763      6724.9433      48.731617      2.3577398     -153100.21     -153049.99    
     39000   20.298614      6263.8128      6724.9433      48.731617      2.3577398     -153100.16     -153052.12    
     39100   20.367442      7542.2242      6724.9433      48.731617      2.3577398     -153102.63     -153054.42    
     39200   20.30507       25363.557      6724.9433      48.731617      2.3577398     -153104.73     -153056.67    
     39300   20.139861      10312.355      6724.9433      48.731617      2.3577398     -153105.39     -153057.72    
     39400   20.248537      16589.752      6724.9433      48.731617      2.3577398     -153104.93     -153057.01    
     39500   21.120549     -106.83976      6724.9433      48.731617      2.3577398     -153103.26     -153053.27    
     39600   20.368421      26731.678      6724.9433      48.731617      2.3577398     -153101.47     -153053.26    
     39700   20.2198        7261.8955      6724.9433      48.731617      2.3577398     -153103.29     -153055.44    
     39800   19.324718      14536.31       6724.9433      48.731617      2.3577398     -153101.88     -153056.15    
     39900   19.733118      16075.614      6724.9433      48.731617      2.3577398     -153102.77     -153056.07    
     40000   20.22838       20337.817      6724.9433      48.731617      2.3577398     -153103.18     -153055.31    
     40100   20.255094      2961.5876      6724.9433      48.731617      2.3577398     -153100.1      -153052.16    
     40200   20.64149       10213.562      6724.9433      48.731617      2.3577398     -153099.55     -153050.7     
     40300   19.792324      19366.88       6724.9433      48.731617      2.3577398     -153100.68     -153053.83    
     40400   20.172658     -1957.7114      6724.9433      48.731617      2.3577398     -153103.76     -153056.01    
     40500   19.750085      37407.554      6724.9433      48.731617      2.3577398     -153104.13     -153057.38    
     40600   18.775458      5865.3678      6724.9433      48.731617      2.3577398     -153101.38     -153056.95    
     40700   19.786794      33925.496      6724.9433      48.731617      2.3577398     -153101.66     -153054.83    
     40800   19.711856     -2345.9176      6724.9433      48.731617      2.3577398     -153099.81     -153053.16    
     40900   20.714998      19431.989      6724.9433      48.731617      2.3577398     -153100.43     -153051.4     
     41000   20.998612      8647.5889      6724.9433      48.731617      2.3577398     -153102.68     -153052.98    
     41100   19.607913      21330.504      6724.9433      48.731617      2.3577398     -153103.09     -153056.69    
     41200   19.245468      16169.066      6724.9433      48.731617      2.3577398     -153103.09     -153057.54    
     41300   20.113583      19716.169      6724.9433      48.731617      2.3577398     -153102.68     -153055.08    
     41400   19.979544      20388.59       6724.9433      48.731617      2.3577398     -153100.33     -153053.04    
     41500   20.24475       14985.672      6724.9433      48.731617      2.3577398     -153101.02     -153053.11    
     41600   19.863577      17980.823      6724.9433      48.731617      2.3577398     -153102.51     -153055.5     
     41700   19.632557      9069.2494      6724.9433      48.731617      2.3577398     -153102.75     -153056.28    
     41800   20.539285      25098.555      6724.9433      48.731617      2.3577398     -153105.32     -153056.71    
     41900   19.653481     -6631.405       6724.9433      48.731617      2.3577398     -153104.15     -153057.64    
     42000   19.691852      27353.985      6724.9433      48.731617      2.3577398     -153102.62     -153056.01    
     42100   19.554191      6239.8497      6724.9433      48.731617      2.3577398     -153098.4      -153052.12    
     42200   19.974396      15359.554      6724.9433      48.731617      2.3577398     -153099.75     -153052.48    
     42300   19.999629      17327.818      6724.9433      48.731617      2.3577398     -153101.97     -153054.64    
     42400   19.872012      16291.865      6724.9433      48.731617      2.3577398     -153102.26     -153055.23    
     42500   19.380349      21629.843      6724.9433      48.731617      2.3577398     -153101.07     -153055.2     
     42600   19.18923       7645.4723      6724.9433      48.731617      2.3577398     -153101.45     -153056.04    
     42700   19.35935       29457.798      6724.9433      48.731617      2.3577398     -153103.19     -153057.37    
     42800   20.483574     -828.36668      6724.9433      48.731617      2.3577398     -153106.48     -153058       
     42900   19.260894      31546.457      6724.9433      48.731617      2.3577398     -153103.3      -153057.71    
     43000   20.846454      6888.9589      6724.9433      48.731617      2.3577398     -153103.9      -153054.56    
     43100   20.15055       18086.337      6724.9433      48.731617      2.3577398     -153101.43     -153053.74    
     43200   20.636283      7553.1813      6724.9433      48.731617      2.3577398     -153102.87     -153054.03    
     43300   19.387274      26073.498      6724.9433      48.731617      2.3577398     -153102.79     -153056.9     
     43400   19.713921      8268.9719      6724.9433      48.731617      2.3577398     -153104.56     -153057.91    
     43500   19.891329      21556.801      6724.9433      48.731617      2.3577398     -153104.52     -153057.44    
     43600   19.873754      15648.332      6724.9433      48.731617      2.3577398     -153103.43     -153056.39    
     43700   20.40188       18912.513      6724.9433      48.731617      2.3577398     -153102.2      -153053.91    
     43800   19.98865       22496.429      6724.9433      48.731617      2.3577398     -153100.25     -153052.94    
     43900   20.378491      16746.857      6724.9433      48.731617      2.3577398     -153102.3      -153054.07    
     44000   19.424096      18450.49       6724.9433      48.731617      2.3577398     -153100.7      -153054.73    
     44100   19.934418      5406.445       6724.9433      48.731617      2.3577398     -153101.91     -153054.73    
     44200   20.601051      13508.177      6724.9433      48.731617      2.3577398     -153104.26     -153055.5     
     44300   20.2566        1960.6994      6724.9433      48.731617      2.3577398     -153107.45     -153059.51    
     44400   19.212988      13772.944      6724.9433      48.731617      2.3577398     -153106.01     -153060.54    
     44500   19.923025      15070.42       6724.9433      48.731617      2.3577398     -153105.46     -153058.31    
     44600   20.510437      9261.8881      6724.9433      48.731617      2.3577398     -153104.77     -153056.23    
     44700   20.622201      25799.777      6724.9433      48.731617      2.3577398     -153104.18     -153055.37    
     44800   20.010352      12039.032      6724.9433      48.731617      2.3577398     -153101.61     -153054.25    
     44900   21.02495       24479.107      6724.9433      48.731617      2.3577398     -153100.14     -153050.38    
     45000   21.927828      13134.927      6724.9433      48.731617      2.3577398     -153102.34     -153050.44    
     45100   20.073022      24448.925      6724.9433      48.731617      2.3577398     -153100.93     -153053.42    
     45200   19.3512        17412.55       6724.9433      48.731617      2.3577398     -153101.57     -153055.77    
     45300   19.847545      16407.906      6724.9433      48.731617      2.3577398     -153103.89     -153056.92    
     45400   19.977546      11852.801      6724.9433      48.731617      2.3577398     -153104.13     -153056.85    
     45500   20.311698      16415.315      6724.9433      48.731617      2.3577398     -153103        -153054.92    
     45600   20.403685      11523.458      6724.9433      48.731617      2.3577398     -153100.48     -153052.19    
     45700   20.263249      14765.681      6724.9433      48.731617      2.3577398     -153100.35     -153052.4     
     45800   19.555645      14521.361      6724.9433      48.731617      2.3577398     -153101.41     -153055.13    
     45900   19.330363      22316.73       6724.9433      48.731617      2.3577398     -153103.06     -153057.31    
     46000   20.42173       10086.101      6724.9433      48.731617      2.3577398     -153104.27     -153055.94    
     46100   20.078501      16507.03       6724.9433      48.731617      2.3577398     -153102.31     -153054.79    
     46200   21.227471      22651.17       6724.9433      48.731617      2.3577398     -153104.5      -153054.26    
     46300   19.265069      14729.066      6724.9433      48.731617      2.3577398     -153103.77     -153058.17    
     46400   19.218919      18842.787      6724.9433      48.731617      2.3577398     -153104.14     -153058.65    
     46500   19.702571      14140.119      6724.9433      48.731617      2.3577398     -153103.22     -153056.59    
     46600   19.998188      19883.947      6724.9433      48.731617      2.3577398     -153102.41     -153055.08    
     46700   19.916503      5041.1314      6724.9433      48.731617      2.3577398     -153101.93     -153054.79    
     46800   19.979943      19517.727      6724.9433      48.731617      2.3577398     -153103.12     -153055.83    
     46900   18.977496      12273.13       6724.9433      48.731617      2.3577398     -153103.84     -153058.92    
     47000   19.182864      18982.491      6724.9433      48.731617      2.3577398     -153104.28     -153058.88    
     47100   19.767432      15339.491      6724.9433      48.731617      2.3577398     -153103.56     -153056.78    
     47200   19.489335      20691.695      6724.9433      48.731617      2.3577398     -153100.49     -153054.37    
     47300   20.25126       18593.587      6724.9433      48.731617      2.3577398     -153101.11     -153053.18    
     47400   19.549747      16634.461      6724.9433      48.731617      2.3577398     -153100.3      -153054.03    
     47500   19.283492      18047.855      6724.9433      48.731617      2.3577398     -153102.31     -153056.68    
     47600   19.131767      4967.3568      6724.9433      48.731617      2.3577398     -153103.77     -153058.49    
     47700   18.830142      20011.923      6724.9433      48.731617      2.3577398     -153102.62     -153058.06    
     47800   20.631315      9854.3408      6724.9433      48.731617      2.3577398     -153102.65     -153053.82    
     47900   20.155474      15278.533      6724.9433      48.731617      2.3577398     -153101.57     -153053.86    
     48000   19.962131      10614.2        6724.9433      48.731617      2.3577398     -153103.46     -153056.21    
     48100   19.686163      18089.173      6724.9433      48.731617      2.3577398     -153104.61     -153058.02    
     48200   19.392858      10598.801      6724.9433      48.731617      2.3577398     -153104.4      -153058.5     
     48300   19.480239      20721.456      6724.9433      48.731617      2.3577398     -153101.71     -153055.61    
     48400   20.717567      16771.423      6724.9433      48.731617      2.3577398     -153101.93     -153052.9     
     48500   20.315288      24030.166      6724.9433      48.731617      2.3577398     -153101.91     -153053.83    
     48600   19.356415      3283.7257      6724.9433      48.731617      2.3577398     -153101.92     -153056.11    
     48700   19.743076      13603.871      6724.9433      48.731617      2.3577398     -153104.07     -153057.35    
     48800   19.892753      10053.39       6724.9433      48.731617      2.3577398     -153104.66     -153057.58    
     48900   20.176706      7335.6939      6724.9433      48.731617      2.3577398     -153103.23     -153055.47    
     49000   21.027137      12958.748      6724.9433      48.731617      2.3577398     -153103.03     -153053.27    
     49100   21.413829      13363.535      6724.9433      48.731617      2.3577398     -153104.49     -153053.81    
     49200   19.691737      22982.772      6724.9433      48.731617      2.3577398     -153102.9      -153056.29    
     49300   19.433982      9180.5114      6724.9433      48.731617      2.3577398     -153103.2      -153057.21    
     49400   20.160259      18757.996      6724.9433      48.731617      2.3577398     -153103.58     -153055.87    
     49500   20.372181      14761.603      6724.9433      48.731617      2.3577398     -153100.27     -153052.06    
     49600   20.818736      16144.832      6724.9433      48.731617      2.3577398     -153101.5      -153052.23    
     49700   20.539152      2291.7823      6724.9433      48.731617      2.3577398     -153103.59     -153054.98    
     49800   19.511616      13879.776      6724.9433      48.731617      2.3577398     -153102.94     -153056.76    
     49900   19.609772      15325.32       6724.9433      48.731617      2.3577398     -153103.61     -153057.19    
     50000   19.011258      5786.9463      6724.9433      48.731617      2.3577398     -153103.41     -153058.41    
     50100   19.367628      8973.2639      6724.9433      48.731617      2.3577398     -153104.16     -153058.33    
     50200   20.03673       7566.085       6724.9433      48.731617      2.3577398     -153103.05     -153055.63    
     50300   20.182311      14313.213      6724.9433      48.731617      2.3577398     -153100.96     -153053.19    
     50400   19.69458       4352.3568      6724.9433      48.731617      2.3577398     -153101.07     -153054.45    
     50500   19.750528      31094.908      6724.9433      48.731617      2.3577398     -153102.95     -153056.2     
     50600   19.542676      7050.2805      6724.9433      48.731617      2.3577398     -153102.91     -153056.66    
     50700   20.397112      15121.257      6724.9433      48.731617      2.3577398     -153103.18     -153054.91    
     50800   21.199829      23694.352      6724.9433      48.731617      2.3577398     -153100.71     -153050.53    
     50900   20.488837      11398.397      6724.9433      48.731617      2.3577398     -153101.12     -153052.63    
     51000   19.598425      23866.62       6724.9433      48.731617      2.3577398     -153101.68     -153055.3     
     51100   19.563373      12016.928      6724.9433      48.731617      2.3577398     -153102.17     -153055.86    
     51200   19.728327      13393.216      6724.9433      48.731617      2.3577398     -153102.07     -153055.38    
     51300   20.43602       16363.523      6724.9433      48.731617      2.3577398     -153102.57     -153054.2     
     51400   20.734436      20410.615      6724.9433      48.731617      2.3577398     -153101.56     -153052.49    
     51500   19.50705       13340.726      6724.9433      48.731617      2.3577398     -153099.78     -153053.61    
     51600   19.966955      19548.582      6724.9433      48.731617      2.3577398     -153103.38     -153056.12    
     51700   18.726781      18772.183      6724.9433      48.731617      2.3577398     -153102.26     -153057.94    
     51800   20.017476      8849.4478      6724.9433      48.731617      2.3577398     -153103.77     -153056.39    
     51900   19.43483       16663.853      6724.9433      48.731617      2.3577398     -153101.21     -153055.21    
     52000   20.014236      7752.2346      6724.9433      48.731617      2.3577398     -153102.32     -153054.95    
     52100   20.052062      13111.941      6724.9433      48.731617      2.3577398     -153102.76     -153055.3     
     52200   19.974921      19671.715      6724.9433      48.731617      2.3577398     -153104.27     -153057       
     52300   19.158857      14933.177      6724.9433      48.731617      2.3577398     -153104.51     -153059.16    
     52400   19.273876      18748.467      6724.9433      48.731617      2.3577398     -153104.15     -153058.53    
     52500   20.01188       29236.036      6724.9433      48.731617      2.3577398     -153102.18     -153054.81    
     52600   21.072825      21186.473      6724.9433      48.731617      2.3577398     -153103.49     -153053.61    
     52700   19.223694      17395.964      6724.9433      48.731617      2.3577398     -153100.72     -153055.23    
     52800   20.132141      17600.341      6724.9433      48.731617      2.3577398     -153104.49     -153056.84    
     52900   19.546237      16700.911      6724.9433      48.731617      2.3577398     -153103.99     -153057.72    
     53000   19.859373      10461.384      6724.9433      48.731617      2.3577398     -153102.35     -153055.34    
     53100   20.512435      29246.185      6724.9433      48.731617      2.3577398     -153100.17     -153051.62    
     53200   20.149371     -6622.0161      6724.9433      48.731617      2.3577398     -153101.04     -153053.35    
     53300   19.228706      22973.747      6724.9433      48.731617      2.3577398     -153101.22     -153055.71    
     53400   19.159965     -7118.3947      6724.9433      48.731617      2.3577398     -153101.67     -153056.32    
     53500   20.252775      26306.34       6724.9433      48.731617      2.3577398     -153104.3      -153056.36    
     53600   19.711286      16346.948      6724.9433      48.731617      2.3577398     -153102.1      -153055.45    
     53700   19.640983      20705.937      6724.9433      48.731617      2.3577398     -153102.08     -153055.6     
     53800   20.454165      14768.335      6724.9433      48.731617      2.3577398     -153104.87     -153056.46    
     53900   19.908381      16193.432      6724.9433      48.731617      2.3577398     -153104.89     -153057.77    
     54000   20.022537      26371.916      6724.9433      48.731617      2.3577398     -153104.49     -153057.1     
     54100   20.294375      12019.495      6724.9433      48.731617      2.3577398     -153101.78     -153053.75    
     54200   20.887713      23955.009      6724.9433      48.731617      2.3577398     -153102.21     -153052.78    
     54300   20.028683      8862.7171      6724.9433      48.731617      2.3577398     -153102.33     -153054.93    
     54400   20.220581      22322.153      6724.9433      48.731617      2.3577398     -153104.58     -153056.73    
     54500   20.042068      6433.9506      6724.9433      48.731617      2.3577398     -153104.53     -153057.1     
     54600   19.366494      25740.308      6724.9433      48.731617      2.3577398     -153103.54     -153057.7     
     54700   19.22669       4074.1686      6724.9433      48.731617      2.3577398     -153102.92     -153057.42    
     54800   19.195128      20120.565      6724.9433      48.731617      2.3577398     -153100.07     -153054.64    
     54900   20.478943      7920.6221      6724.9433      48.731617      2.3577398     -153100.78     -153052.31    
     55000   20.612583      16855.037      6724.9433      48.731617      2.3577398     -153101.98     -153053.2     
     55100   19.591224      18224.247      6724.9433      48.731617      2.3577398     -153102.34     -153055.97    
     55200   19.60033       22349.973      6724.9433      48.731617      2.3577398     -153103.2      -153056.81    
     55300   19.533842      13199.85       6724.9433      48.731617      2.3577398     -153103.02     -153056.79    
     55400   19.986492      15802.818      6724.9433      48.731617      2.3577398     -153102.37     -153055.06    
     55500   21.082575      12423.454      6724.9433      48.731617      2.3577398     -153101.4      -153051.5     
     55600   20.522869      18250.35       6724.9433      48.731617      2.3577398     -153099.67     -153051.1     
     55700   20.37152       18649.306      6724.9433      48.731617      2.3577398     -153101.02     -153052.8     
     55800   20.089333      10351.497      6724.9433      48.731617      2.3577398     -153100.4      -153052.86    
     55900   19.994009      16050.112      6724.9433      48.731617      2.3577398     -153100.88     -153053.56    
     56000   20.099156      8292.3398      6724.9433      48.731617      2.3577398     -153103.34     -153055.77    
     56100   19.318723      18121.891      6724.9433      48.731617      2.3577398     -153103.91     -153058.18    
     56200   19.186563      5701.051       6724.9433      48.731617      2.3577398     -153103.47     -153058.06    
     56300   19.184878      19912.14       6724.9433      48.731617      2.3577398     -153102.68     -153057.27    
     56400   19.866039      8006.2202      6724.9433      48.731617      2.3577398     -153103.46     -153056.44    
     56500   19.908206      24915.409      6724.9433      48.731617      2.3577398     -153102.17     -153055.05    
     56600   19.917846      1221.1471      6724.9433      48.731617      2.3577398     -153100.93     -153053.78    
     56700   20.447497      23144.378      6724.9433      48.731617      2.3577398     -153101.84     -153053.44    
     56800   19.982806      13551.751      6724.9433      48.731617      2.3577398     -153102.84     -153055.55    
     56900   18.979946      14301.235      6724.9433      48.731617      2.3577398     -153103.06     -153058.14    
     57000   19.935971      16513.122      6724.9433      48.731617      2.3577398     -153104.7      -153057.52    
     57100   19.500723      10972.547      6724.9433      48.731617      2.3577398     -153101.1      -153054.95    
     57200   20.359544      23126.542      6724.9433      48.731617      2.3577398     -153102.11     -153053.93    
     57300   19.776643      11408.485      6724.9433      48.731617      2.3577398     -153101.73     -153054.92    
     57400   19.617709      15759.162      6724.9433      48.731617      2.3577398     -153101.43     -153055       
     57500   19.877271      10202.178      6724.9433      48.731617      2.3577398     -153101.74     -153054.69    
     57600   20.131754      16693.998      6724.9433      48.731617      2.3577398     -153102.38     -153054.73    
     57700   20.051449      13379.959      6724.9433      48.731617      2.3577398     -153103.38     -153055.92    
     57800   19.496162      20607.93       6724.9433      48.731617      2.3577398     -153105.8      -153059.66    
     57900   19.841015      16678.716      6724.9433      48.731617      2.3577398     -153106.12     -153059.16    
     58000   19.522717      21512.077      6724.9433      48.731617      2.3577398     -153102.07     -153055.87    
     58100   20.076812      16297.391      6724.9433      48.731617      2.3577398     -153101.76     -153054.24    
     58200   20.925358      12214.11       6724.9433      48.731617      2.3577398     -153103.61     -153054.08    
     58300   20.429961      13533.833      6724.9433      48.731617      2.3577398     -153104.87     -153056.51    
     58400   18.661509      16456.9        6724.9433      48.731617      2.3577398     -153102.79     -153058.63    
     58500   19.621851      28641.371      6724.9433      48.731617      2.3577398     -153104.39     -153057.95    
     58600   19.811207      6514.8913      6724.9433      48.731617      2.3577398     -153104.04     -153057.15    
     58700   20.07504       22710.874      6724.9433      48.731617      2.3577398     -153103.67     -153056.16    
     58800   20.450157      10491.842      6724.9433      48.731617      2.3577398     -153103.13     -153054.73    
     58900   20.72941       28347.786      6724.9433      48.731617      2.3577398     -153101.21     -153052.15    
     59000   21.444091      341.26235      6724.9433      48.731617      2.3577398     -153102.87     -153052.12    
     59100   20.33404       22375.762      6724.9433      48.731617      2.3577398     -153104.07     -153055.94    
     59200   20.139833      10763.252      6724.9433      48.731617      2.3577398     -153105.35     -153057.68    
     59300   19.391566      22670.615      6724.9433      48.731617      2.3577398     -153104.05     -153058.16    
     59400   19.637684      11310.303      6724.9433      48.731617      2.3577398     -153103.58     -153057.1     
     59500   20.167871      22047.391      6724.9433      48.731617      2.3577398     -153101.43     -153053.7     
     59600   20.269346      14784.587      6724.9433      48.731617      2.3577398     -153101.37     -153053.4     
     59700   20.331154      20037.018      6724.9433      48.731617      2.3577398     -153102.63     -153054.51    
     59800   20.316541      21738.405      6724.9433      48.731617      2.3577398     -153104.27     -153056.19    
     59900   19.332521      9176.3235      6724.9433      48.731617      2.3577398     -153105.92     -153060.16    
     60000   19.3976        23776.627      6724.9433      48.731617      2.3577398     -153105.21     -153059.3     
     60100   20.018175      4309.317       6724.9433      48.731617      2.3577398     -153104.15     -153056.77    
     60200   19.702722      25329.752      6724.9433      48.731617      2.3577398     -153101.72     -153055.08    
     60300   20.385213      6358.4129      6724.9433      48.731617      2.3577398     -153102.21     -153053.96    
     60400   20.394746      22311.874      6724.9433      48.731617      2.3577398     -153101.68     -153053.41    
     60500   20.588185      12629.293      6724.9433      48.731617      2.3577398     -153102.59     -153053.87    
     60600   19.181526      31209.295      6724.9433      48.731617      2.3577398     -153102.33     -153056.93    
     60700   19.839048      11654.102      6724.9433      48.731617      2.3577398     -153104.36     -153057.4     
     60800   20.241383      20469.436      6724.9433      48.731617      2.3577398     -153103.31     -153055.41    
     60900   20.580575      14855.954      6724.9433      48.731617      2.3577398     -153102.63     -153053.92    
     61000   19.348546      15218.359      6724.9433      48.731617      2.3577398     -153101.7      -153055.91    
     61100   18.724871      13179.628      6724.9433      48.731617      2.3577398     -153102.79     -153058.47    
     61200   19.842558      6482.7308      6724.9433      48.731617      2.3577398     -153103.59     -153056.62    
     61300   19.924265      19363.272      6724.9433      48.731617      2.3577398     -153101.32     -153054.17    
     61400   20.140634      12647.723      6724.9433      48.731617      2.3577398     -153101.37     -153053.7     
     61500   19.877966      27997.122      6724.9433      48.731617      2.3577398     -153101.27     -153054.22    
     61600   19.424269      8467.8296      6724.9433      48.731617      2.3577398     -153102.53     -153056.56    
     61700   19.998419      28318.732      6724.9433      48.731617      2.3577398     -153105.79     -153058.45    
     61800   19.798414      13391.869      6724.9433      48.731617      2.3577398     -153104.7      -153057.84    
     61900   19.620617      9809.9366      6724.9433      48.731617      2.3577398     -153099.94     -153053.5     
     62000   21.053533      12780.892      6724.9433      48.731617      2.3577398     -153103.05     -153053.22    
     62100   20.607233      21494.375      6724.9433      48.731617      2.3577398     -153103.51     -153054.74    
     62200   19.55602       9521.6239      6724.9433      48.731617      2.3577398     -153103.02     -153056.73    
     62300   20.368615      28248.094      6724.9433      48.731617      2.3577398     -153104.9      -153056.7     
     62400   20.08554       10344.801      6724.9433      48.731617      2.3577398     -153100.13     -153052.59    
     62500   20.606808      25147.852      6724.9433      48.731617      2.3577398     -153100.79     -153052.02    
     62600   19.629152      9395.7244      6724.9433      48.731617      2.3577398     -153100.93     -153054.47    
     62700   19.529274      12903.093      6724.9433      48.731617      2.3577398     -153102.51     -153056.28    
     62800   19.59682       14755.042      6724.9433      48.731617      2.3577398     -153103.81     -153057.43    
     62900   19.471415      12734.764      6724.9433      48.731617      2.3577398     -153103.87     -153057.79    
     63000   19.934973      14236.817      6724.9433      48.731617      2.3577398     -153101.31     -153054.12    
     63100   20.68679       16916.086      6724.9433      48.731617      2.3577398     -153101.06     -153052.1     
     63200   20.191433      21307.416      6724.9433      48.731617      2.3577398     -153101.22     -153053.43    
     63300   19.730004      14284.713      6724.9433      48.731617      2.3577398     -153102.25     -153055.55    
     63400   20.063573      14153.415      6724.9433      48.731617      2.3577398     -153104.47     -153056.99    
     63500   19.092432      13949.253      6724.9433      48.731617      2.3577398     -153102.68     -153057.49    
     63600   19.483409      14254.159      6724.9433      48.731617      2.3577398     -153103.33     -153057.22    
     63700   20.970178      17547.252      6724.9433      48.731617      2.3577398     -153103.43     -153053.8     
     63800   20.871151      22038.967      6724.9433      48.731617      2.3577398     -153102.21     -153052.82    
     63900   19.693867      10938.054      6724.9433      48.731617      2.3577398     -153101.48     -153054.87    
     64000   20.253208      31593.942      6724.9433      48.731617      2.3577398     -153103.96     -153056.02    
     64100   20.046839      7750.4332      6724.9433      48.731617      2.3577398     -153105.58     -153058.14    
     64200   19.068704      15338.125      6724.9433      48.731617      2.3577398     -153106.01     -153060.88    
     64300   18.78749       11327.413      6724.9433      48.731617      2.3577398     -153104.43     -153059.96    
     64400   19.849398      21394.899      6724.9433      48.731617      2.3577398     -153105.04     -153058.06    
     64500   20.041452      6133.2587      6724.9433      48.731617      2.3577398     -153104.18     -153056.75    
[...]
    384200   19.839626      19954.608      6724.9433      48.731617      2.3577398     -153101.47     -153054.52    
    384300   20.289498      15037.256      6724.9433      48.731617      2.3577398     -153104.71     -153056.69    
    384400   19.355063      19338.857      6724.9433      48.731617      2.3577398     -153102.58     -153056.77    
    384500   20.846972     -1072.5456      6724.9433      48.731617      2.3577398     -153104.13     -153054.79    
    384600   20.294513      30544.41       6724.9433      48.731617      2.3577398     -153102.32     -153054.29    
    384700   19.863745     -3048.9327      6724.9433      48.731617      2.3577398     -153103.39     -153056.37    
    384800   19.187814      24430.298      6724.9433      48.731617      2.3577398     -153105.65     -153060.24    
    384900   19.701647      2595.033       6724.9433      48.731617      2.3577398     -153105.55     -153058.92    
    385000   19.958348      27816.308      6724.9433      48.731617      2.3577398     -153103.41     -153056.17    
    385100   20.555001      10483.506      6724.9433      48.731617      2.3577398     -153104.7      -153056.05    
    385200   19.849616      29888.469      6724.9433      48.731617      2.3577398     -153104.75     -153057.77    
    385300   19.725844      7739.3654      6724.9433      48.731617      2.3577398     -153105.22     -153058.54    
    385400   18.839114      23410.125      6724.9433      48.731617      2.3577398     -153102.82     -153058.23    
    385500   19.714808      16503.337      6724.9433      48.731617      2.3577398     -153101.62     -153054.96    
    385600   21.092871      22921.436      6724.9433      48.731617      2.3577398     -153103.02     -153053.1     
    385700   20.131841      8525.9524      6724.9433      48.731617      2.3577398     -153102.21     -153054.56    
    385800   19.42689       18115.158      6724.9433      48.731617      2.3577398     -153103.44     -153057.46    
    385900   20.019475      20163.624      6724.9433      48.731617      2.3577398     -153105.01     -153057.63    
    386000   19.664714      14318.364      6724.9433      48.731617      2.3577398     -153103.8      -153057.26    
    386100   19.851999      28828.313      6724.9433      48.731617      2.3577398     -153102.47     -153055.49    
    386200   20.792929      12800.791      6724.9433      48.731617      2.3577398     -153101.28     -153052.07    
    386300   20.067927      28763.648      6724.9433      48.731617      2.3577398     -153101.28     -153053.78    
    386400   20.360443      19219.437      6724.9433      48.731617      2.3577398     -153103.57     -153055.38    
    386500   19.72822       14128.737      6724.9433      48.731617      2.3577398     -153103.65     -153056.96    
    386600   19.185475      15133.306      6724.9433      48.731617      2.3577398     -153103.16     -153057.75    
    386700   19.422247      16354.146      6724.9433      48.731617      2.3577398     -153102.28     -153056.31    
    386800   20.16332       18000.317      6724.9433      48.731617      2.3577398     -153100.19     -153052.47    
    386900   20.198311      11972.008      6724.9433      48.731617      2.3577398     -153101.41     -153053.6     
    387000   19.317281      29997.051      6724.9433      48.731617      2.3577398     -153101.55     -153055.83    
    387100   19.728174      10934.271      6724.9433      48.731617      2.3577398     -153102.88     -153056.19    
    387200   19.747189      11081.001      6724.9433      48.731617      2.3577398     -153100.85     -153054.11    
    387300   20.784194      11278.862      6724.9433      48.731617      2.3577398     -153100.16     -153050.97    
    387400   20.997594      22000.614      6724.9433      48.731617      2.3577398     -153100.98     -153051.29    
    387500   20.120092     -837.75125      6724.9433      48.731617      2.3577398     -153102.37     -153054.75    
    387600   19.685999      17285.873      6724.9433      48.731617      2.3577398     -153102.14     -153055.55    
    387700   18.894416      2503.4341      6724.9433      48.731617      2.3577398     -153100.75     -153056.03    
    387800   19.407929      15596.242      6724.9433      48.731617      2.3577398     -153101.58     -153055.64    
    387900   20.694748      18539.96       6724.9433      48.731617      2.3577398     -153101.81     -153052.84    
    388000   20.529953      16970.759      6724.9433      48.731617      2.3577398     -153101.36     -153052.77    
    388100   19.351422      25203.808      6724.9433      48.731617      2.3577398     -153101.46     -153055.66    
    388200   19.717102      6222.1012      6724.9433      48.731617      2.3577398     -153102.53     -153055.86    
    388300   20.160301      23553.268      6724.9433      48.731617      2.3577398     -153103.53     -153055.81    
    388400   19.797908      14881.038      6724.9433      48.731617      2.3577398     -153102.99     -153056.14    
    388500   19.102709      14040.668      6724.9433      48.731617      2.3577398     -153100.92     -153055.71    
    388600   20.259278      7127.8158      6724.9433      48.731617      2.3577398     -153101.27     -153053.32    
    388700   20.970064      18397.641      6724.9433      48.731617      2.3577398     -153102.62     -153052.99    
    388800   19.50119       6865.3172      6724.9433      48.731617      2.3577398     -153102.57     -153056.41    
    388900   20.156317      13877.421      6724.9433      48.731617      2.3577398     -153105.42     -153057.72    
    389000   19.852441      9252.4324      6724.9433      48.731617      2.3577398     -153104.93     -153057.94    
    389100   20.322568      23008.905      6724.9433      48.731617      2.3577398     -153104.67     -153056.57    
    389200   20.066525      10837.599      6724.9433      48.731617      2.3577398     -153101.18     -153053.69    
    389300   20.859835      23728.695      6724.9433      48.731617      2.3577398     -153102.51     -153053.14    
    389400   20.085711      11175.347      6724.9433      48.731617      2.3577398     -153105.61     -153058.08    
    389500   19.775454      33489.703      6724.9433      48.731617      2.3577398     -153105.94     -153059.14    
    389600   19.63789       12500.178      6724.9433      48.731617      2.3577398     -153103.89     -153057.41    
    389700   20.612264      17014.715      6724.9433      48.731617      2.3577398     -153103.74     -153054.95    
    389800   20.129472      28800.728      6724.9433      48.731617      2.3577398     -153102.26     -153054.62    
    389900   19.648975      5178.6893      6724.9433      48.731617      2.3577398     -153102.42     -153055.91    
    390000   19.267954      20884.342      6724.9433      48.731617      2.3577398     -153104.52     -153058.92    
    390100   19.498466     -755.81941      6724.9433      48.731617      2.3577398     -153104.74     -153058.59    
    390200   19.872653      22361.782      6724.9433      48.731617      2.3577398     -153102.63     -153055.6     
    390300   20.70592       3778.3869      6724.9433      48.731617      2.3577398     -153103.88     -153054.87    
    390400   19.453727      25801.361      6724.9433      48.731617      2.3577398     -153101.75     -153055.71    
    390500   19.833663      6252.4634      6724.9433      48.731617      2.3577398     -153103.84     -153056.9     
    390600   19.749549      16939.352      6724.9433      48.731617      2.3577398     -153104.88     -153058.14    
    390700   19.353897      3081.7734      6724.9433      48.731617      2.3577398     -153104.67     -153058.86    
    390800   20.472731      8382.8217      6724.9433      48.731617      2.3577398     -153104.57     -153056.12    
    390900   20.519923      16173.541      6724.9433      48.731617      2.3577398     -153102.93     -153054.37    
    391000   20.594923      25694.129      6724.9433      48.731617      2.3577398     -153103.5      -153054.75    
    391100   19.851984      7776.257       6724.9433      48.731617      2.3577398     -153104.4      -153057.42    
    391200   19.438826      20364.658      6724.9433      48.731617      2.3577398     -153105.66     -153059.65    
    391300   20.054902      25406.598      6724.9433      48.731617      2.3577398     -153105.95     -153058.48    
    391400   19.328408      4392.0404      6724.9433      48.731617      2.3577398     -153102.81     -153057.06    
    391500   19.961491      25406.413      6724.9433      48.731617      2.3577398     -153102.58     -153055.33    
    391600   20.405854      10874          6724.9433      48.731617      2.3577398     -153102.44     -153054.14    
    391700   20.080062      21932.207      6724.9433      48.731617      2.3577398     -153101.65     -153054.12    
    391800   19.987475      11977.801      6724.9433      48.731617      2.3577398     -153105.1      -153057.79    
    391900   19.552729      21966.37       6724.9433      48.731617      2.3577398     -153105.09     -153058.81    
    392000   19.59173       6624.8295      6724.9433      48.731617      2.3577398     -153103.29     -153056.92    
    392100   20.165569      29134.401      6724.9433      48.731617      2.3577398     -153102.6      -153054.87    
    392200   19.828359      7768.9923      6724.9433      48.731617      2.3577398     -153101.1      -153054.17    
    392300   20.332674      21910.632      6724.9433      48.731617      2.3577398     -153102.72     -153054.6     
    392400   20.063144      5198.4564      6724.9433      48.731617      2.3577398     -153102.74     -153055.26    
    392500   19.442375      27378.478      6724.9433      48.731617      2.3577398     -153101.63     -153055.61    
    392600   19.689623      5235.4487      6724.9433      48.731617      2.3577398     -153102.12     -153055.52    
    392700   19.570616      14331.456      6724.9433      48.731617      2.3577398     -153102.35     -153056.03    
    392800   19.575356      21215.505      6724.9433      48.731617      2.3577398     -153104.08     -153057.75    
    392900   20.030197      21785.568      6724.9433      48.731617      2.3577398     -153105.36     -153057.95    
    393000   20.303259      11844.511      6724.9433      48.731617      2.3577398     -153103.33     -153055.27    
    393100   20.717664      3355.9677      6724.9433      48.731617      2.3577398     -153102.24     -153053.2     
    393200   20.43543       26540.712      6724.9433      48.731617      2.3577398     -153102.31     -153053.94    
    393300   20.286369      6991.8417      6724.9433      48.731617      2.3577398     -153104.28     -153056.27    
    393400   19.796503      23177.698      6724.9433      48.731617      2.3577398     -153103.57     -153056.72    
    393500   19.646489      11037.673      6724.9433      48.731617      2.3577398     -153103.35     -153056.85    
    393600   19.555851      21799.091      6724.9433      48.731617      2.3577398     -153102.96     -153056.68    
    393700   20.163839      3300.2655      6724.9433      48.731617      2.3577398     -153102.02     -153054.3     
    393800   21.010338      33365.707      6724.9433      48.731617      2.3577398     -153100.88     -153051.16    
    393900   20.679214      10133.72       6724.9433      48.731617      2.3577398     -153101.35     -153052.41    
    394000   19.910254      15298.109      6724.9433      48.731617      2.3577398     -153101.38     -153054.26    
    394100   20.164585      10081.357      6724.9433      48.731617      2.3577398     -153103.05     -153055.32    
    394200   19.840444      11610.576      6724.9433      48.731617      2.3577398     -153103.7      -153056.74    
    394300   19.442526      27963.533      6724.9433      48.731617      2.3577398     -153105.58     -153059.57    
    394400   18.899643      8548.701       6724.9433      48.731617      2.3577398     -153105.4      -153060.67    
    394500   19.560039      23451.27       6724.9433      48.731617      2.3577398     -153104.02     -153057.72    
    394600   19.850572      7641.3846      6724.9433      48.731617      2.3577398     -153102.76     -153055.78    
    394700   19.894277      29045.965      6724.9433      48.731617      2.3577398     -153102.53     -153055.44    
    394800   20.389594     -1933.4777      6724.9433      48.731617      2.3577398     -153104.12     -153055.86    
    394900   19.994706      27344.247      6724.9433      48.731617      2.3577398     -153105.88     -153058.56    
    395000   19.869995      5377.0236      6724.9433      48.731617      2.3577398     -153107.08     -153060.06    
    395100   19.686235      20486.7        6724.9433      48.731617      2.3577398     -153103.93     -153057.34    
    395200   19.690824      12300.512      6724.9433      48.731617      2.3577398     -153101.15     -153054.55    
    395300   20.026964      21614.22       6724.9433      48.731617      2.3577398     -153101.43     -153054.03    
    395400   19.617512      19874.45       6724.9433      48.731617      2.3577398     -153101.77     -153055.34    
    395500   19.598459      16130.879      6724.9433      48.731617      2.3577398     -153104.05     -153057.67    
    395600   19.46725       29921.808      6724.9433      48.731617      2.3577398     -153104.43     -153058.35    
    395700   20.206493     -4418.1936      6724.9433      48.731617      2.3577398     -153104.26     -153056.43    
    395800   21.253623      29623.78       6724.9433      48.731617      2.3577398     -153103.63     -153053.32    
    395900   21.992598     -6911.501       6724.9433      48.731617      2.3577398     -153101.5      -153049.45    
    396000   21.022248      29335.2        6724.9433      48.731617      2.3577398     -153099.03     -153049.27    
    396100   20.869641      14182.298      6724.9433      48.731617      2.3577398     -153103.16     -153053.77    
    396200   19.473754      11034.017      6724.9433      48.731617      2.3577398     -153101.89     -153055.8     
    396300   20.2565        24359.232      6724.9433      48.731617      2.3577398     -153103.91     -153055.97    
    396400   20.578703      9380.0406      6724.9433      48.731617      2.3577398     -153103.63     -153054.92    
    396500   20.501427      24744.753      6724.9433      48.731617      2.3577398     -153103.12     -153054.6     
    396600   20.250349      11334.504      6724.9433      48.731617      2.3577398     -153103.12     -153055.19    
    396700   19.886343      25030.675      6724.9433      48.731617      2.3577398     -153103.63     -153056.56    
    396800   18.943278      14981.368      6724.9433      48.731617      2.3577398     -153103.38     -153058.54    
    396900   19.692618      24979.873      6724.9433      48.731617      2.3577398     -153103.59     -153056.98    
    397000   20.463479      10081.789      6724.9433      48.731617      2.3577398     -153102.49     -153054.06    
    397100   21.154184      22497.681      6724.9433      48.731617      2.3577398     -153104.03     -153053.97    
    397200   20.054536      19903.158      6724.9433      48.731617      2.3577398     -153102.76     -153055.29    
    397300   19.138653      22138.499      6724.9433      48.731617      2.3577398     -153101.6      -153056.31    
    397400   20.016951      18364.187      6724.9433      48.731617      2.3577398     -153103.25     -153055.88    
    397500   20.839313      14563.455      6724.9433      48.731617      2.3577398     -153104.43     -153055.1     
    397600   19.814878      21654.113      6724.9433      48.731617      2.3577398     -153101.26     -153054.36    
    397700   21.501954      5999.1428      6724.9433      48.731617      2.3577398     -153105.2      -153054.31    
    397800   20.370507      24916.881      6724.9433      48.731617      2.3577398     -153104.82     -153056.6     
    397900   19.98905      -1667.7892      6724.9433      48.731617      2.3577398     -153106.02     -153058.71    
    398000   19.688667      30077.658      6724.9433      48.731617      2.3577398     -153105.21     -153058.62    
    398100   20.574763      13281.453      6724.9433      48.731617      2.3577398     -153104.54     -153055.84    
    398200   20.143144      19230.491      6724.9433      48.731617      2.3577398     -153102.97     -153055.29    
    398300   20.101272      15927          6724.9433      48.731617      2.3577398     -153103.61     -153056.04    
    398400   19.529632      22400.032      6724.9433      48.731617      2.3577398     -153102.59     -153056.37    
    398500   20.140854      8056.8785      6724.9433      48.731617      2.3577398     -153103.05     -153055.38    
    398600   20.586775      30240.151      6724.9433      48.731617      2.3577398     -153102.86     -153054.14    
    398700   20.298224      6264.5678      6724.9433      48.731617      2.3577398     -153102.3      -153054.26    
    398800   20.285378      21278.487      6724.9433      48.731617      2.3577398     -153105.42     -153057.4     
    398900   19.407582      14670.84       6724.9433      48.731617      2.3577398     -153104.72     -153058.78    
    399000   20.239917      16994.552      6724.9433      48.731617      2.3577398     -153104.82     -153056.92    
    399100   20.085133      11793.476      6724.9433      48.731617      2.3577398     -153103.25     -153055.71    
    399200   19.754565      15338.087      6724.9433      48.731617      2.3577398     -153102.3      -153055.54    
    399300   20.548709      29035.28       6724.9433      48.731617      2.3577398     -153103.83     -153055.19    
    399400   20.05012       10113.719      6724.9433      48.731617      2.3577398     -153104.61     -153057.16    
    399500   19.145284      31708.13       6724.9433      48.731617      2.3577398     -153105.33     -153060.02    
    399600   19.465309      11413.759      6724.9433      48.731617      2.3577398     -153104.34     -153058.27    
    399700   20.560826      15216.563      6724.9433      48.731617      2.3577398     -153104.51     -153055.85    
    399800   20.121201      15541.528      6724.9433      48.731617      2.3577398     -153102.55     -153054.92    
    399900   19.680664      7763.4032      6724.9433      48.731617      2.3577398     -153102.91     -153056.33    
    400000   19.235882      12270.835      6724.9433      48.731617      2.3577398     -153103.61     -153058.08    
    400011   19.321168      22012.653      6724.9433      48.731617      2.3577398     -153103.82     -153058.09    
Loop time of 15087.8 on 64 procs for 400000 steps with 795 atoms

Performance: 0.573 ns/day, 41.910 hours/ns, 26.512 timesteps/s
99.6% CPU use with 64 MPI tasks x 1 OpenMP threads

MPI task timing breakdown:
Section |  min time  |  avg time  |  max time  |%varavg| %total
---------------------------------------------------------------
Pair    | 8680.2     | 11030      | 13782      |1399.9 | 73.11
Neigh   | 9.2792     | 11.832     | 15.058     |  44.5 |  0.08
Comm    | 149.11     | 2657.6     | 4924.4     |2537.7 | 17.61
Output  | 0.49389    | 1.5381     | 2.5624     |  55.6 |  0.01
Modify  | 1132.2     | 1383.5     | 2484.4     | 726.5 |  9.17
Other   |            | 3.21       |            |       |  0.02

Nlocal:        12.4219 ave          16 max           8 min
Histogram: 2 1 12 1 0 20 10 3 13 2
Nghost:        2173.77 ave        2525 max        1881 min
Histogram: 6 9 3 8 13 8 2 7 5 3
Neighs:        6823.08 ave        9073 max        3595 min
Histogram: 1 4 9 1 13 4 9 8 2 13

Total # of neighbors = 436677
Ave neighs/atom = 549.27925
Neighbor list builds = 1109
Dangerous builds = 0

write_data graphene_single_layer_ReaxFF_750_C_temp_20K.data ### MODIFY FILE NAME ###
System init for write_data ...
Total wall time: 4:11:30
