
# System definition
read_data graphene_single_layer_x-45_y-45_795_C.data ### MODIFY FILE NAME ###
Reading data file ...
  orthogonal box = (-1.4464652 -1.4423034 -1.42) to (47.285152 47.149102 1.42)
  8 by 8 by 1 MPI processor grid
  reading atoms ...
  795 atoms
  reading velocities ...
  795 velocities
  read_data CPU = 0.012 seconds

pair_style reax/c NULL
pair_coeff * * ffield.reax.cho C
Reading potential file ffield.reax.cho with DATE: 2011-02-18
fix qeq_reax all qeq/reax 1 0.0 10.0 1.0e-6 reax/c


# Minimization
timestep 0.25
min_style cg
thermo 100
thermo_style custom step temp press vol lx density pe etotal
dump 2 all custom 1000 graphene_single_layer_ReaxFF_795_C_temp_700K.lammpstrj id type x y z ### MODIFY FILE NAME ###
minimize 1.0e-6 1.0e-6 100 1000

CITE-CITE-CITE-CITE-CITE-CITE-CITE-CITE-CITE-CITE-CITE-CITE-CITE

Your simulation uses code contributions which should be cited:

- pair reaxff command:

@Article{Aktulga12,
 author = {H. M. Aktulga, J. C. Fogarty, S. A. Pandit, A. Y. Grama},
 title = {Parallel reactive molecular dynamics: Numerical methods and algorithmic techniques},
 journal = {Parallel Computing},
 year =    2012,
 volume =  38,
 pages =   {245--259}
}

- fix qeq/reaxff command:

@Article{Aktulga12,
 author = {H. M. Aktulga, J. C. Fogarty, S. A. Pandit, A. Y. Grama},
 title = {Parallel reactive molecular dynamics: Numerical methods and algorithmic techniques},
 journal = {Parallel Computing},
 year =    2012,
 volume =  38,
 pages =   {245--259}
}

CITE-CITE-CITE-CITE-CITE-CITE-CITE-CITE-CITE-CITE-CITE-CITE-CITE

WARNING: Using 'neigh_modify every 1 delay 0 check yes' setting during minimization (src/min.cpp:187)
Neighbor list info ...
  update every 1 steps, delay 0 steps, check yes
  max neighbors/atom: 10000, page size: 100000
  master list distance cutoff = 10.4
  ghost atom cutoff = 10.4
  binsize = 5.2, bins = 10 10 1
  2 neighbor lists, perpetual/occasional/extra = 2 0 0
  (1) pair reax/c, perpetual
      attributes: half, newton off, ghost
      pair build: half/bin/newtoff/ghost
      stencil: full/ghost/bin/3d
      bin: standard
  (2) fix qeq/reax, perpetual, copy from (1)
      attributes: half, newton off
      pair build: copy
      stencil: none
      bin: none
Per MPI rank memory allocation (min/avg/max) = 36.37 | 41.41 | 47.38 Mbytes
   Step          Temp          Press          Volume           Lx          Density         PotEng         TotEng    
         0   923            34054.396      6724.9433      48.731617      2.3577398     -151766.67     -149582.14    
        11   923            35396.792      6724.9433      48.731617      2.3577398     -151904.55     -149720.03    
Loop time of 2.14381 on 64 procs for 11 steps with 795 atoms

98.2% CPU use with 64 MPI tasks x 1 OpenMP threads

Minimization stats:
  Stopping criterion = energy tolerance
  Energy initial, next-to-last, final = 
     -151766.666472543  -151904.508881892  -151904.547898656
  Force two-norm initial, final = 279.94165 356.09863
  Force max component initial, final = 137.99181 55.448555
  Final line search alpha, max atom move = 0.00038853166 0.021543519
  Iterations, force evaluations = 11 32

MPI task timing breakdown:
Section |  min time  |  avg time  |  max time  |%varavg| %total
---------------------------------------------------------------
Pair    | 0.84524    | 1.2423     | 1.7834     |  19.2 | 57.95
Neigh   | 0.011534   | 0.018517   | 0.025998   |   2.3 |  0.86
Comm    | 0.027917   | 0.46949    | 0.95489    |  29.4 | 21.90
Output  | 0          | 0          | 0          |   0.0 |  0.00
Modify  | 0.30225    | 0.30992    | 0.31697    |   0.6 | 14.46
Other   |            | 0.1036     |            |       |  4.83

Nlocal:        12.4219 ave          15 max          10 min
Histogram: 15 0 0 0 22 0 12 0 0 15
Nghost:        2194.12 ave        2559 max        1869 min
Histogram: 2 8 9 4 12 12 5 4 6 2
Neighs:        6807.34 ave        8856 max        4476 min
Histogram: 4 8 3 7 7 13 5 2 0 15

Total # of neighbors = 435670
Ave neighs/atom = 548.01258
Neighbor list builds = 1
Dangerous builds = 0

fix 1 all nvt temp 700.0 700.0 $(100.0*dt)  ### MODIFY INIT TEMP, FINAL TEMP ###
fix 1 all nvt temp 700.0 700.0 25  
run 400000
Per MPI rank memory allocation (min/avg/max) = 35.25 | 40.29 | 46.26 Mbytes
   Step          Temp          Press          Volume           Lx          Density         PotEng         TotEng    
        11   923            35396.792      6724.9433      48.731617      2.3577398     -151904.55     -149720.03    
       100   579.67418      33673.875      6724.9433      48.731617      2.3577398     -150978.04     -149606.09    
       200   564.61896      189934.85      6724.9433      48.731617      2.3577398     -150732.28     -149395.96    
       300   718.32872     -9032.1364      6724.9433      48.731617      2.3577398     -150858.68     -149158.57    
       400   793.82756     -24861.895      6724.9433      48.731617      2.3577398     -150895.59     -149016.78    
       500   776.57378      94238.54       6724.9433      48.731617      2.3577398     -150961.74     -149123.78    
       600   700.57436      25972.46       6724.9433      48.731617      2.3577398     -151011.08     -149352.98    
       700   702.74757     -4057.6232      6724.9433      48.731617      2.3577398     -151202.45     -149539.21    
       800   724.8117       30236.458      6724.9433      48.731617      2.3577398     -151388.04     -149672.59    
       900   706.73702      50978.673      6724.9433      48.731617      2.3577398     -151401.99     -149729.31    
      1000   693.73325      45422.532      6724.9433      48.731617      2.3577398     -151340.95     -149699.04    
      1100   685.50685      32623.147      6724.9433      48.731617      2.3577398     -151236.04     -149613.61    
      1200   698.79198      17761.608      6724.9433      48.731617      2.3577398     -151211.76     -149557.89    
      1300   718.48547      57887.521      6724.9433      48.731617      2.3577398     -151270.89     -149570.4     
      1400   707.48802      48259.63       6724.9433      48.731617      2.3577398     -151308.66     -149634.2     
      1500   701.02477      26233.288      6724.9433      48.731617      2.3577398     -151364.41     -149705.25    
      1600   671.23856     -17317.186      6724.9433      48.731617      2.3577398     -151317.12     -149728.46    
      1700   678.91877      28941.406      6724.9433      48.731617      2.3577398     -151288.78     -149681.94    
      1800   734.09169      75318.695      6724.9433      48.731617      2.3577398     -151307.56     -149570.14    
      1900   728.73774      63921.929      6724.9433      48.731617      2.3577398     -151301.38     -149576.64    
      2000   705.05104     -31920.828      6724.9433      48.731617      2.3577398     -151309.23     -149640.54    
      2100   692.81426     -6521.725       6724.9433      48.731617      2.3577398     -151305.92     -149666.19    
      2200   692.0593       21768.907      6724.9433      48.731617      2.3577398     -151311.87     -149673.93    
      2300   712.62087      67848.238      6724.9433      48.731617      2.3577398     -151310.38     -149623.77    
      2400   735.76128      7015.8038      6724.9433      48.731617      2.3577398     -151359.4      -149618.03    
      2500   693.91158     -11604.919      6724.9433      48.731617      2.3577398     -151376.2      -149733.88    
      2600   674.98786      109790.22      6724.9433      48.731617      2.3577398     -151356.72     -149759.19    
      2700   674.44219      60852.847      6724.9433      48.731617      2.3577398     -151285.48     -149689.23    
      2800   726.15119     -7998.9456      6724.9433      48.731617      2.3577398     -151317.46     -149598.83    
      2900   724.84177      46.007532      6724.9433      48.731617      2.3577398     -151328.08     -149612.56    
      3000   702.37943      56169.029      6724.9433      48.731617      2.3577398     -151333.41     -149671.05    
      3100   661.08944      37000.644      6724.9433      48.731617      2.3577398     -151326.28     -149761.64    
      3200   670.31138      23735.293      6724.9433      48.731617      2.3577398     -151352.66     -149766.19    
      3300   695.39647      20834.121      6724.9433      48.731617      2.3577398     -151371.44     -149725.6     
      3400   694.51969      57321.127      6724.9433      48.731617      2.3577398     -151321.51     -149677.75    
      3500   718.19561      13387.38       6724.9433      48.731617      2.3577398     -151367.23     -149667.43    
      3600   732.40028     -59831.7        6724.9433      48.731617      2.3577398     -151443.34     -149709.93    
      3700   682.54136      48044.392      6724.9433      48.731617      2.3577398     -151447.97     -149832.56    
      3800   685.81492      68110.851      6724.9433      48.731617      2.3577398     -151440.3      -149817.14    
      3900   688.1325       18973.654      6724.9433      48.731617      2.3577398     -151350.63     -149721.98    
      4000   716.08098     -28277.51       6724.9433      48.731617      2.3577398     -151366.25     -149671.46    
      4100   728.81864      18740.157      6724.9433      48.731617      2.3577398     -151419.54     -149694.6     
      4200   709.42155      76525.178      6724.9433      48.731617      2.3577398     -151424.36     -149745.33    
      4300   666.96867      1595.9418      6724.9433      48.731617      2.3577398     -151365.89     -149787.33    
      4400   660.32956     -22014.428      6724.9433      48.731617      2.3577398     -151345.08     -149782.24    
      4500   684.04605      2609.1259      6724.9433      48.731617      2.3577398     -151329.76     -149710.78    
      4600   720.13891      28909.69       6724.9433      48.731617      2.3577398     -151342        -149637.6     
      4700   739.20814      73381.559      6724.9433      48.731617      2.3577398     -151408.92     -149659.39    
      4800   723.13288     -2939.6197      6724.9433      48.731617      2.3577398     -151500.24     -149788.75    
      4900   689.94112      3678.055       6724.9433      48.731617      2.3577398     -151441.67     -149808.75    
      5000   707.19408      19583.867      6724.9433      48.731617      2.3577398     -151481.62     -149807.86    
      5100   683.88743      31466.588      6724.9433      48.731617      2.3577398     -151426.43     -149807.83    
      5200   739.38887      26655.616      6724.9433      48.731617      2.3577398     -151513.39     -149763.43    
      5300   711.82171     -12330.709      6724.9433      48.731617      2.3577398     -151453.73     -149769.02    
      5400   686.8831       58527.97       6724.9433      48.731617      2.3577398     -151492.01     -149866.32    
      5500   680.22648      26807.846      6724.9433      48.731617      2.3577398     -151531.91     -149921.98    
      5600   681.87878      2862.38        6724.9433      48.731617      2.3577398     -151514.25     -149900.4     
      5700   733.39535      13207.899      6724.9433      48.731617      2.3577398     -151539.75     -149803.97    
      5800   709.70005      36079          6724.9433      48.731617      2.3577398     -151436.52     -149756.83    
      5900   727.87877      12748.911      6724.9433      48.731617      2.3577398     -151499.39     -149776.67    
      6000   715.25108      21962.787      6724.9433      48.731617      2.3577398     -151520.05     -149827.22    
      6100   693.27139      53387.255      6724.9433      48.731617      2.3577398     -151513.89     -149873.08    
      6200   698.98618      93537.69       6724.9433      48.731617      2.3577398     -151503.95     -149849.62    
      6300   719.41027     -47974.206      6724.9433      48.731617      2.3577398     -151492.04     -149789.36    
      6400   701.58953     -14456.675      6724.9433      48.731617      2.3577398     -151399.49     -149738.99    
      6500   720.04082      47817.223      6724.9433      48.731617      2.3577398     -151422.41     -149718.24    
      6600   713.96013      52176.283      6724.9433      48.731617      2.3577398     -151499.1      -149809.32    
      6700   699.92831      38258.376      6724.9433      48.731617      2.3577398     -151535.66     -149879.1     
      6800   692.4958       15088.724      6724.9433      48.731617      2.3577398     -151526.5      -149887.53    
      6900   738.24163     -4776.2026      6724.9433      48.731617      2.3577398     -151556.54     -149809.3     
      7000   760.69649      66807.09       6724.9433      48.731617      2.3577398     -151509.88     -149709.49    
      7100   720.99396     -47113.357      6724.9433      48.731617      2.3577398     -151448.43     -149742.01    
      7200   678.40102      56372.795      6724.9433      48.731617      2.3577398     -151494.4      -149888.78    
      7300   700.18713     -15608.972      6724.9433      48.731617      2.3577398     -151575.01     -149917.83    
      7400   734.78826      10341.411      6724.9433      48.731617      2.3577398     -151640.06     -149900.99    
      7500   717.94632     -8679.223       6724.9433      48.731617      2.3577398     -151563.62     -149864.41    
      7600   700.62642      57155.189      6724.9433      48.731617      2.3577398     -151466.76     -149808.55    
      7700   728.3214       58227.809      6724.9433      48.731617      2.3577398     -151440.72     -149716.95    
      7800   735.41699     -11037.096      6724.9433      48.731617      2.3577398     -151440.3      -149699.74    
      7900   709.67485      5511.1573      6724.9433      48.731617      2.3577398     -151535.64     -149856.01    
      8000   697.4378      -1066.4235      6724.9433      48.731617      2.3577398     -151562.26     -149911.59    
      8100   702.47991      22918.872      6724.9433      48.731617      2.3577398     -151555.98     -149893.38    
      8200   709.42701     -13460.665      6724.9433      48.731617      2.3577398     -151521.52     -149842.47    
      8300   693.08994     -1441.4939      6724.9433      48.731617      2.3577398     -151445.25     -149804.87    
      8400   710.8769       55120.208      6724.9433      48.731617      2.3577398     -151477.33     -149794.85    
      8500   716.14317      83889.667      6724.9433      48.731617      2.3577398     -151557.7      -149862.76    
      8600   695.26805      8017.7596      6724.9433      48.731617      2.3577398     -151598.6      -149953.07    
      8700   674.09655     -7568.3277      6724.9433      48.731617      2.3577398     -151564.26     -149968.83    
      8800   706.64558     -32173.964      6724.9433      48.731617      2.3577398     -151560.71     -149888.24    
      8900   720.96664      24376.409      6724.9433      48.731617      2.3577398     -151503.2      -149796.84    
      9000   733.31835      48688.167      6724.9433      48.731617      2.3577398     -151541.56     -149805.97    
      9100   668.09113     -32195.86       6724.9433      48.731617      2.3577398     -151451        -149869.79    
      9200   717.50726      1913.7377      6724.9433      48.731617      2.3577398     -151597.89     -149899.72    
      9300   690.26442      26657.437      6724.9433      48.731617      2.3577398     -151637.99     -150004.3     
      9400   673.12431      55505.072      6724.9433      48.731617      2.3577398     -151629.08     -150035.95    
      9500   658.33227     -44458.481      6724.9433      48.731617      2.3577398     -151467.7      -149909.59    
      9600   704.32353     -16826.313      6724.9433      48.731617      2.3577398     -151518.07     -149851.1     
      9700   694.92907      66421.524      6724.9433      48.731617      2.3577398     -151483.06     -149838.33    
      9800   709.02773      17892.31       6724.9433      48.731617      2.3577398     -151539.47     -149861.37    
      9900   698.2709       27444.497      6724.9433      48.731617      2.3577398     -151547.7      -149895.05    
     10000   710.5115      -28905.741      6724.9433      48.731617      2.3577398     -151629.86     -149948.25    
     10100   683.41213      61287.765      6724.9433      48.731617      2.3577398     -151605.54     -149988.06    
     10200   678.69597     -3729.6335      6724.9433      48.731617      2.3577398     -151535.78     -149929.47    
     10300   719.43262     -4781.6076      6724.9433      48.731617      2.3577398     -151528.01     -149825.28    
     10400   714.42404      34683.89       6724.9433      48.731617      2.3577398     -151505.38     -149814.51    
     10500   697.16664     -15234.842      6724.9433      48.731617      2.3577398     -151508.28     -149858.25    
     10600   681.864        14404.967      6724.9433      48.731617      2.3577398     -151586.25     -149972.44    
     10700   688.53491      25035.923      6724.9433      48.731617      2.3577398     -151615.06     -149985.47    
     10800   704.57918      385.27821      6724.9433      48.731617      2.3577398     -151615        -149947.43    
     10900   704.27051      5942.4284      6724.9433      48.731617      2.3577398     -151571.05     -149904.21    
     11000   716.79471      73914.523      6724.9433      48.731617      2.3577398     -151542.82     -149846.34    
     11100   696.34962     -17453.24       6724.9433      48.731617      2.3577398     -151468.45     -149820.36    
     11200   713.31443     -10565.896      6724.9433      48.731617      2.3577398     -151530.01     -149841.76    
     11300   662.88362     -15261.677      6724.9433      48.731617      2.3577398     -151570.73     -150001.84    
     11400   679.67457      62947.68       6724.9433      48.731617      2.3577398     -151592.55     -149983.92    
     11500   691.88103      35133.242      6724.9433      48.731617      2.3577398     -151532.57     -149895.05    
     11600   695.02584     -35598.496      6724.9433      48.731617      2.3577398     -151477.04     -149832.07    
     11700   731.6348       6930.7653      6724.9433      48.731617      2.3577398     -151525.79     -149794.19    
     11800   680.56392     -23461.689      6724.9433      48.731617      2.3577398     -151482.7      -149871.97    
     11900   690.16247      56863.832      6724.9433      48.731617      2.3577398     -151597.27     -149963.82    
     12000   695.4467      -12257.269      6724.9433      48.731617      2.3577398     -151598.78     -149952.82    
     12100   687.15006     -48413.522      6724.9433      48.731617      2.3577398     -151514.12     -149887.8     
     12200   686.50621      26914.247      6724.9433      48.731617      2.3577398     -151476.53     -149851.73    
     12300   709.47308      66253.861      6724.9433      48.731617      2.3577398     -151526.8      -149847.65    
     12400   729.57518      31686.617      6724.9433      48.731617      2.3577398     -151563.81     -149837.08    
     12500   677.96778     -11699.138      6724.9433      48.731617      2.3577398     -151569.12     -149964.53    
     12600   651.20662      11357.106      6724.9433      48.731617      2.3577398     -151573.01     -150031.75    
     12700   688.89866      63605.631      6724.9433      48.731617      2.3577398     -151587.78     -149957.32    
     12800   709.7275       43965.907      6724.9433      48.731617      2.3577398     -151545.16     -149865.4     
     12900   681.00872     -56997.179      6724.9433      48.731617      2.3577398     -151462.02     -149850.23    
     13000   695.92226     -47855.129      6724.9433      48.731617      2.3577398     -151491.44     -149844.35    
     13100   690.15515      64914.978      6724.9433      48.731617      2.3577398     -151464.82     -149831.39    
     13200   681.8443      -17292.566      6724.9433      48.731617      2.3577398     -151482.09     -149868.33    
     13300   715.97937     -19213.27       6724.9433      48.731617      2.3577398     -151605.99     -149911.44    
     13400   674.30786     -881.76838      6724.9433      48.731617      2.3577398     -151553.62     -149957.69    
     13500   699.15037      9733.978       6724.9433      48.731617      2.3577398     -151613.41     -149958.68    
     13600   718.01704      15508.04       6724.9433      48.731617      2.3577398     -151553.15     -149853.77    
     13700   720.81639      9330.6118      6724.9433      48.731617      2.3577398     -151496.44     -149790.44    
     13800   711.90319      20664.822      6724.9433      48.731617      2.3577398     -151483.9      -149798.99    
     13900   677.23152      20963.51       6724.9433      48.731617      2.3577398     -151483.98     -149881.13    
     14000   705.87024      3155.8892      6724.9433      48.731617      2.3577398     -151662.49     -149991.86    
     14100   674.7237       67768.301      6724.9433      48.731617      2.3577398     -151577.77     -149980.86    
     14200   668.63318     -30678.449      6724.9433      48.731617      2.3577398     -151508.92     -149926.42    
     14300   701.95085      50501.321      6724.9433      48.731617      2.3577398     -151520.29     -149858.94    
     14400   721.08784      7631.4539      6724.9433      48.731617      2.3577398     -151523.5      -149816.86    
     14500   714.65256     -15873.194      6724.9433      48.731617      2.3577398     -151537.05     -149845.64    
     14600   664.76811      12290.69       6724.9433      48.731617      2.3577398     -151570.36     -149997.01    
     14700   680.99293      33794.12       6724.9433      48.731617      2.3577398     -151628.81     -150017.06    
     14800   677.32504      2213.7435      6724.9433      48.731617      2.3577398     -151537.68     -149934.61    
     14900   669.36826      18500.27       6724.9433      48.731617      2.3577398     -151436.78     -149852.55    
     15000   719.63129     -16510.292      6724.9433      48.731617      2.3577398     -151520.54     -149817.35    
     15100   707.32999      38218.166      6724.9433      48.731617      2.3577398     -151528.86     -149854.77    
     15200   681.3878      -45405.079      6724.9433      48.731617      2.3577398     -151569.78     -149957.1     
     15300   681.82484      19736.258      6724.9433      48.731617      2.3577398     -151581.88     -149968.16    
     15400   696.74056      39281.609      6724.9433      48.731617      2.3577398     -151580.12     -149931.1     
     15500   693.41817      45172.392      6724.9433      48.731617      2.3577398     -151522.58     -149881.42    
     15600   741.59192      5555.1947      6724.9433      48.731617      2.3577398     -151564.28     -149809.1     
     15700   719.51715      30610.191      6724.9433      48.731617      2.3577398     -151512.16     -149809.23    
     15800   713.17805      4164.0914      6724.9433      48.731617      2.3577398     -151521.58     -149833.66    
     15900   707.67685      39871.943      6724.9433      48.731617      2.3577398     -151536.82     -149861.92    
     16000   697.338        22369.124      6724.9433      48.731617      2.3577398     -151534.45     -149884.02    
     16100   684.26889     -19507.067      6724.9433      48.731617      2.3577398     -151552.6      -149933.1     
     16200   647.78796      55006.986      6724.9433      48.731617      2.3577398     -151551.35     -150018.19    
     16300   667.03642      6519.2951      6724.9433      48.731617      2.3577398     -151617.28     -150038.56    
     16400   693.83068      24484.875      6724.9433      48.731617      2.3577398     -151555.22     -149913.08    
     16500   715.51348      13510.328      6724.9433      48.731617      2.3577398     -151550.18     -149856.73    
     16600   703.90294      78744.897      6724.9433      48.731617      2.3577398     -151509.97     -149844       
     16700   731.05701     -5248.0271      6724.9433      48.731617      2.3577398     -151616.58     -149886.35    
     16800   702.6935      -44719.812      6724.9433      48.731617      2.3577398     -151651.67     -149988.56    
     16900   671.2451       50028.562      6724.9433      48.731617      2.3577398     -151612.37     -150023.69    
     17000   678.83169      42493.144      6724.9433      48.731617      2.3577398     -151566.07     -149959.44    
     17100   706.40161     -20079.639      6724.9433      48.731617      2.3577398     -151580.02     -149908.14    
     17200   735.45248      17281.219      6724.9433      48.731617      2.3577398     -151613.85     -149873.21    
     17300   723.95978      14219.99       6724.9433      48.731617      2.3577398     -151572.49     -149859.05    
     17400   693.72297      10378.873      6724.9433      48.731617      2.3577398     -151543.01     -149901.14    
     17500   673.12828      5973.851       6724.9433      48.731617      2.3577398     -151571.01     -149977.88    
     17600   684.46461     -20264.958      6724.9433      48.731617      2.3577398     -151595.73     -149975.76    
     17700   700.08729      14612.548      6724.9433      48.731617      2.3577398     -151525.9      -149868.95    
     17800   706.56566      11354.087      6724.9433      48.731617      2.3577398     -151478.11     -149805.84    
     17900   708.68856      20437.172      6724.9433      48.731617      2.3577398     -151513.54     -149836.25    
     18000   702.83094      15369.479      6724.9433      48.731617      2.3577398     -151559.53     -149896.09    
     18100   687.89628      1022.525       6724.9433      48.731617      2.3577398     -151552.77     -149924.69    
     18200   678.29348      76659.456      6724.9433      48.731617      2.3577398     -151518.55     -149913.19    
     18300   703.00234      33517.82       6724.9433      48.731617      2.3577398     -151565.58     -149901.74    
     18400   710.92053      6021.5969      6724.9433      48.731617      2.3577398     -151553.22     -149870.64    
     18500   728.75678      30958.439      6724.9433      48.731617      2.3577398     -151526.37     -149801.58    
     18600   719.59231     -559.41335      6724.9433      48.731617      2.3577398     -151463.56     -149760.45    
     18700   694.52616      16427.422      6724.9433      48.731617      2.3577398     -151480.99     -149837.21    
     18800   696.38691     -20292.636      6724.9433      48.731617      2.3577398     -151575.8      -149927.62    
     18900   664.34109      24493.974      6724.9433      48.731617      2.3577398     -151507.37     -149935.03    
     19000   683.14187     -30285.021      6724.9433      48.731617      2.3577398     -151517.95     -149901.12    
     19100   700.42337     -4036.4813      6724.9433      48.731617      2.3577398     -151454.65     -149796.91    
     19200   713.66161      75552.966      6724.9433      48.731617      2.3577398     -151423.17     -149734.1     
     19300   712.83894     -12776.887      6724.9433      48.731617      2.3577398     -151476.55     -149789.43    
     19400   713.9013       2122.0941      6724.9433      48.731617      2.3577398     -151569.71     -149880.07    
     19500   692.18817      24696.719      6724.9433      48.731617      2.3577398     -151555.98     -149917.73    
     19600   688.39226      27951.528      6724.9433      48.731617      2.3577398     -151545.66     -149916.4     
     19700   682.48496     -46474.56       6724.9433      48.731617      2.3577398     -151465.23     -149849.94    
     19800   726.26956      8207.4078      6724.9433      48.731617      2.3577398     -151488.4      -149769.5     
     19900   726.59116      68293.523      6724.9433      48.731617      2.3577398     -151516.44     -149796.77    
     20000   713.6646       19289.199      6724.9433      48.731617      2.3577398     -151549.19     -149860.12    
     20100   721.0625       22624.898      6724.9433      48.731617      2.3577398     -151587.37     -149880.79    
     20200   703.81101      6530.0898      6724.9433      48.731617      2.3577398     -151552.32     -149886.57    
     20300   691.66436      34588.147      6724.9433      48.731617      2.3577398     -151538.62     -149901.61    
     20400   680.33151      4476.6042      6724.9433      48.731617      2.3577398     -151522.59     -149912.41    
     20500   669.68932      20635.194      6724.9433      48.731617      2.3577398     -151461.22     -149876.23    
     20600   685.28783      16002.627      6724.9433      48.731617      2.3577398     -151434.13     -149812.21    
     20700   721.79287     -24736.525      6724.9433      48.731617      2.3577398     -151496.54     -149788.23    
     20800   741.37633      54488.279      6724.9433      48.731617      2.3577398     -151570.75     -149816.09    
     20900   685.63765      41009.636      6724.9433      48.731617      2.3577398     -151556.47     -149933.72    
     21000   666.76258      12513.087      6724.9433      48.731617      2.3577398     -151525.67     -149947.6     
     21100   693.91149      30969.446      6724.9433      48.731617      2.3577398     -151589.64     -149947.31    
     21200   704.02434      10490.77       6724.9433      48.731617      2.3577398     -151542.2      -149875.94    
     21300   721.57745      72018.92       6724.9433      48.731617      2.3577398     -151500.5      -149792.7     
     21400   698.5749       35559.644      6724.9433      48.731617      2.3577398     -151483.53     -149830.17    
     21500   706.10924      35662.45       6724.9433      48.731617      2.3577398     -151596.94     -149925.74    
     21600   699.78653      39679.547      6724.9433      48.731617      2.3577398     -151664.67     -150008.44    
     21700   665.04152      34356.02       6724.9433      48.731617      2.3577398     -151561.08     -149987.09    
     21800   702.44418      70965.79       6724.9433      48.731617      2.3577398     -151571.63     -149909.11    
     21900   718.58309     -2687.3872      6724.9433      48.731617      2.3577398     -151553.24     -149852.52    
     22000   688.70219      20834.125      6724.9433      48.731617      2.3577398     -151452.61     -149822.61    
     22100   694.80988      13061.428      6724.9433      48.731617      2.3577398     -151518.74     -149874.29    
     22200   684.25113     -380.89603      6724.9433      48.731617      2.3577398     -151620.5      -150001.04    
     22300   676.87267      12161.87       6724.9433      48.731617      2.3577398     -151582.35     -149980.35    
     22400   706.10589     -12666.842      6724.9433      48.731617      2.3577398     -151568        -149896.81    
     22500   727.61865      60627.708      6724.9433      48.731617      2.3577398     -151574.95     -149852.85    
     22600   718.08295      3473.694       6724.9433      48.731617      2.3577398     -151553.06     -149853.53    
     22700   691.12213      62429.681      6724.9433      48.731617      2.3577398     -151555.47     -149919.75    
     22800   673.89978      30962.711      6724.9433      48.731617      2.3577398     -151592.52     -149997.55    
     22900   658.87746     -5412.0167      6724.9433      48.731617      2.3577398     -151544.42     -149985.01    
     23000   693.52857     -20414.919      6724.9433      48.731617      2.3577398     -151516.67     -149875.25    
     23100   715.83664     -9890.9914      6724.9433      48.731617      2.3577398     -151523.47     -149829.25    
     23200   720.14873      46115.016      6724.9433      48.731617      2.3577398     -151550.31     -149845.89    
     23300   720.05681      41318.191      6724.9433      48.731617      2.3577398     -151609.9      -149905.7     
     23400   707.56364      18615.372      6724.9433      48.731617      2.3577398     -151646.88     -149972.25    
     23500   725.26618      42202.843      6724.9433      48.731617      2.3577398     -151636.26     -149919.72    
     23600   715.46798      825.27444      6724.9433      48.731617      2.3577398     -151467.66     -149774.32    
     23700   692.80233      30035.065      6724.9433      48.731617      2.3577398     -151388.8      -149749.11    
     23800   723.92084     -1681.5647      6724.9433      48.731617      2.3577398     -151487.86     -149774.51    
     23900   694.55783      15745.189      6724.9433      48.731617      2.3577398     -151539.46     -149895.61    
     24000   707.09443      8035.529       6724.9433      48.731617      2.3577398     -151593.19     -149919.67    
     24100   658.84078      24088.906      6724.9433      48.731617      2.3577398     -151493.73     -149934.41    
     24200   678.22361      73481.6        6724.9433      48.731617      2.3577398     -151489.43     -149884.23    
     24300   708.28408     -3137.91        6724.9433      48.731617      2.3577398     -151453.4      -149777.06    
     24400   680.48533      14558.021      6724.9433      48.731617      2.3577398     -151412.22     -149801.68    
     24500   692.96578      29863.119      6724.9433      48.731617      2.3577398     -151503.47     -149863.39    
     24600   653.29031     -1501.9857      6724.9433      48.731617      2.3577398     -151462.5      -149916.31    
     24700   682.73994     -3948.0512      6724.9433      48.731617      2.3577398     -151525.48     -149909.6     
     24800   683.20123      2901.4016      6724.9433      48.731617      2.3577398     -151489.53     -149872.55    
     24900   715.10057     -3300.0605      6724.9433      48.731617      2.3577398     -151523.3      -149830.82    
     25000   718.27518      10221.849      6724.9433      48.731617      2.3577398     -151566.22     -149866.24    
     25100   696.15669      6534.9314      6724.9433      48.731617      2.3577398     -151624.63     -149976.99    
     25200   668.30237      24511.753      6724.9433      48.731617      2.3577398     -151564.81     -149983.1     
     25300   694.31485      7779.9322      6724.9433      48.731617      2.3577398     -151545.08     -149901.8     
     25400   700.67029     -55287.98       6724.9433      48.731617      2.3577398     -151485.01     -149826.69    
     25500   693.49775      20960.064      6724.9433      48.731617      2.3577398     -151433.66     -149792.32    
     25600   709.97716      35035.281      6724.9433      48.731617      2.3577398     -151480.57     -149800.22    
     25700   711.27577     -9858.2982      6724.9433      48.731617      2.3577398     -151551.56     -149868.14    
     25800   675.87676     -29885.326      6724.9433      48.731617      2.3577398     -151531.25     -149931.61    
     25900   675.85767      35398.241      6724.9433      48.731617      2.3577398     -151551.1      -149951.51    
     26000   704.96053      82727.711      6724.9433      48.731617      2.3577398     -151565.51     -149897.03    
     26100   736.8717      -19534.892      6724.9433      48.731617      2.3577398     -151510.01     -149766.01    
     26200   680.99496      13125.809      6724.9433      48.731617      2.3577398     -151432.28     -149820.52    
     26300   686.19002      52585.795      6724.9433      48.731617      2.3577398     -151526.3      -149902.25    
     26400   681.3068       905.56837      6724.9433      48.731617      2.3577398     -151538.25     -149925.76    
     26500   705.35995      32001.828      6724.9433      48.731617      2.3577398     -151564.27     -149894.85    
     26600   731.61132     -4389.2941      6724.9433      48.731617      2.3577398     -151504.15     -149772.6     
     26700   760.41047      22110.098      6724.9433      48.731617      2.3577398     -151530.85     -149731.14    
     26800   697.72824      58491.646      6724.9433      48.731617      2.3577398     -151440.89     -149789.53    
     26900   709.91123      22505.146      6724.9433      48.731617      2.3577398     -151516.51     -149836.32    
     27000   684.6123      -39730.646      6724.9433      48.731617      2.3577398     -151535.04     -149914.73    
     27100   670.25134      13505.51       6724.9433      48.731617      2.3577398     -151533.38     -149947.05    
     27200   713.39584      28514.604      6724.9433      48.731617      2.3577398     -151605.14     -149916.7     
     27300   733.52108      27714          6724.9433      48.731617      2.3577398     -151546.76     -149810.69    
     27400   733           -5471.8796      6724.9433      48.731617      2.3577398     -151474.53     -149739.69    
     27500   694.41007      24410.865      6724.9433      48.731617      2.3577398     -151442.25     -149798.75    
     27600   691.61365      1338.0518      6724.9433      48.731617      2.3577398     -151495.29     -149858.41    
     27700   703.1841       33153.759      6724.9433      48.731617      2.3577398     -151552.21     -149887.94    
     27800   672.96058      6821.0272      6724.9433      48.731617      2.3577398     -151560.43     -149967.69    
     27900   673.86571     -50292.411      6724.9433      48.731617      2.3577398     -151638.63     -150043.75    
     28000   668.42363      4489.9124      6724.9433      48.731617      2.3577398     -151642.78     -150060.78    
     28100   694.81288     -7081.6342      6724.9433      48.731617      2.3577398     -151567.71     -149923.25    
     28200   704.71907      42612.024      6724.9433      48.731617      2.3577398     -151532.39     -149864.48    
     28300   706.22554      32951.124      6724.9433      48.731617      2.3577398     -151514.97     -149843.5     
     28400   678.85026     -15455.718      6724.9433      48.731617      2.3577398     -151474.42     -149867.74    
     28500   672.24985      15744.798      6724.9433      48.731617      2.3577398     -151523.14     -149932.09    
     28600   702.87346      34227.251      6724.9433      48.731617      2.3577398     -151647.13     -149983.6     
     28700   704.55618      45957.663      6724.9433      48.731617      2.3577398     -151653.72     -149986.2     
     28800   684.70909      5011.9047      6724.9433      48.731617      2.3577398     -151498.88     -149878.34    
     28900   709.10355     -14306.975      6724.9433      48.731617      2.3577398     -151497.99     -149819.71    
     29000   709.94886     -29024.172      6724.9433      48.731617      2.3577398     -151517.12     -149836.84    
     29100   720.62305      16519.007      6724.9433      48.731617      2.3577398     -151627.62     -149922.07    
     29200   684.70866      13210.788      6724.9433      48.731617      2.3577398     -151646.65     -150026.1     
     29300   665.43014     -45322.985      6724.9433      48.731617      2.3577398     -151571.57     -149996.66    
     29400   668.50145     -16512.327      6724.9433      48.731617      2.3577398     -151523.67     -149941.49    
     29500   707.13022      18020.848      6724.9433      48.731617      2.3577398     -151559.65     -149886.04    
     29600   699.86412      13001.777      6724.9433      48.731617      2.3577398     -151518.04     -149861.63    
     29700   674.52649      64928.108      6724.9433      48.731617      2.3577398     -151458.36     -149861.92    
     29800   692.68625      10783.528      6724.9433      48.731617      2.3577398     -151510.18     -149870.76    
     29900   690.01772      14086.578      6724.9433      48.731617      2.3577398     -151510.14     -149877.04    
     30000   680.88668     -34239.928      6724.9433      48.731617      2.3577398     -151507.13     -149895.63    
     30100   696.17367      23945.025      6724.9433      48.731617      2.3577398     -151584.69     -149937.02    
     30200   679.54593     -3273.5543      6724.9433      48.731617      2.3577398     -151592.56     -149984.24    
     30300   675.47906      24946.177      6724.9433      48.731617      2.3577398     -151534.42     -149935.72    
     30400   684.86056     -23012.114      6724.9433      48.731617      2.3577398     -151446.37     -149825.47    
     30500   701.18594     -14122.282      6724.9433      48.731617      2.3577398     -151467.83     -149808.29    
     30600   718.62138     -6532.7557      6724.9433      48.731617      2.3577398     -151539.36     -149838.56    
     30700   672.77239     -55001.736      6724.9433      48.731617      2.3577398     -151550.41     -149958.11    
     30800   689.26499      62226.887      6724.9433      48.731617      2.3577398     -151593.81     -149962.48    
     30900   687.39739      18560.038      6724.9433      48.731617      2.3577398     -151551.16     -149924.25    
     31000   686.22886      39314.937      6724.9433      48.731617      2.3577398     -151469.88     -149845.74    
     31100   692.10926      24791.808      6724.9433      48.731617      2.3577398     -151472.97     -149834.91    
     31200   700.33432     -31136.416      6724.9433      48.731617      2.3577398     -151536.79     -149879.27    
     31300   667.34666      51614.484      6724.9433      48.731617      2.3577398     -151485.27     -149905.82    
     31400   706.02072     -25824.898      6724.9433      48.731617      2.3577398     -151546.35     -149875.37    
     31500   731.46639      39400.76       6724.9433      48.731617      2.3577398     -151454.97     -149723.76    
     31600   733.56174     -40303.001      6724.9433      48.731617      2.3577398     -151418.84     -149682.67    
     31700   718.90817      39935.816      6724.9433      48.731617      2.3577398     -151466.05     -149764.57    
     31800   703.4071       22291.743      6724.9433      48.731617      2.3577398     -151520.28     -149855.48    
     31900   730.53077     -12475.975      6724.9433      48.731617      2.3577398     -151645.22     -149916.23    
     32000   691.15884     -13223.907      6724.9433      48.731617      2.3577398     -151597.37     -149961.57    
     32100   694.8491      -13541.622      6724.9433      48.731617      2.3577398     -151622.44     -149977.89    
     32200   694.88636      19861.124      6724.9433      48.731617      2.3577398     -151536.43     -149891.8     
     32300   710.07902      7896.255       6724.9433      48.731617      2.3577398     -151468.51     -149787.92    
     32400   686.08885      42104.473      6724.9433      48.731617      2.3577398     -151416.11     -149792.3     
     32500   701.51858     -8753.471       6724.9433      48.731617      2.3577398     -151526.83     -149866.5     
     32600   686.18179      6361.8395      6724.9433      48.731617      2.3577398     -151566.19     -149942.16    
     32700   684.75893      55576.667      6724.9433      48.731617      2.3577398     -151569.08     -149948.41    
     32800   691.44871      46398.919      6724.9433      48.731617      2.3577398     -151551.76     -149915.26    
     32900   693.7511       1788.9881      6724.9433      48.731617      2.3577398     -151518.58     -149876.63    
     33000   730.14425      2242.8172      6724.9433      48.731617      2.3577398     -151570.07     -149841.99    
     33100   710.77584      14057.649      6724.9433      48.731617      2.3577398     -151546.45     -149864.21    
     33200   732.24474      55288.3        6724.9433      48.731617      2.3577398     -151621.63     -149888.58    
     33300   691.48618      31728.928      6724.9433      48.731617      2.3577398     -151562.39     -149925.81    
     33400   657.57181      11854.154      6724.9433      48.731617      2.3577398     -151533.9      -149977.58    
     33500   679.05673      43231.718      6724.9433      48.731617      2.3577398     -151590.62     -149983.46    
     33600   700.97024     -32825.462      6724.9433      48.731617      2.3577398     -151556.6      -149897.57    
     33700   719.78412      42281.78       6724.9433      48.731617      2.3577398     -151524.12     -149820.56    
     33800   729.77891      28287.307      6724.9433      48.731617      2.3577398     -151539.88     -149812.66    
     33900   679.88988      8.5954309      6724.9433      48.731617      2.3577398     -151501.87     -149892.73    
     34000   668.07719     -20519.19       6724.9433      48.731617      2.3577398     -151560.68     -149979.5     
     34100   694.10275      44289.249      6724.9433      48.731617      2.3577398     -151588.47     -149945.69    
     34200   693.02344      26540.097      6724.9433      48.731617      2.3577398     -151526.7      -149886.47    
     34300   690.78868      14502.629      6724.9433      48.731617      2.3577398     -151506.13     -149871.2     
     34400   710.65323      22215.557      6724.9433      48.731617      2.3577398     -151522.82     -149840.87    
     34500   733.94364      34182.488      6724.9433      48.731617      2.3577398     -151575.17     -149838.1     
     34600   730.96166     -2637.0637      6724.9433      48.731617      2.3577398     -151605.15     -149875.13    
     34700   692.55076      15499.732      6724.9433      48.731617      2.3577398     -151584.94     -149945.84    
     34800   691.28747      61517.29       6724.9433      48.731617      2.3577398     -151585.95     -149949.83    
     34900   712.78923      56989.795      6724.9433      48.731617      2.3577398     -151529.38     -149842.37    
     35000   748.01775      4879.1587      6724.9433      48.731617      2.3577398     -151537.39     -149767.01    
     35100   715.44644      18968.116      6724.9433      48.731617      2.3577398     -151505.87     -149812.58    
     35200   701.44171     -21462.9        6724.9433      48.731617      2.3577398     -151555.43     -149895.28    
     35300   667.90183      11763.647      6724.9433      48.731617      2.3577398     -151538.15     -149957.39    
     35400   663.76054      10052.48       6724.9433      48.731617      2.3577398     -151517.84     -149946.88    
     35500   710.57744      40953.691      6724.9433      48.731617      2.3577398     -151552.47     -149870.7     
     35600   687.0919      -5402.7314      6724.9433      48.731617      2.3577398     -151436.43     -149810.25    
     35700   713.33925     -17873.914      6724.9433      48.731617      2.3577398     -151512.52     -149824.21    
     35800   718.28224      32525.044      6724.9433      48.731617      2.3577398     -151558.02     -149858.02    
     35900   703.37116      23553.967      6724.9433      48.731617      2.3577398     -151579.38     -149914.66    
     36000   684.16134      9429.4476      6724.9433      48.731617      2.3577398     -151606.85     -149987.61    
     36100   718.4309       44133.98       6724.9433      48.731617      2.3577398     -151639.93     -149939.58    
     36200   727.27512     -6615.563       6724.9433      48.731617      2.3577398     -151534.77     -149813.48    
     36300   739.73251      4131.593       6724.9433      48.731617      2.3577398     -151536.83     -149786.05    
     36400   702.27934      65623.459      6724.9433      48.731617      2.3577398     -151526.58     -149864.45    
     36500   689.18725      49072.144      6724.9433      48.731617      2.3577398     -151569.02     -149937.88    
     36600   677.20477      30404.221      6724.9433      48.731617      2.3577398     -151550.31     -149947.53    
     36700   730.32322      17973.775      6724.9433      48.731617      2.3577398     -151583.45     -149854.95    
     36800   722.84593      15089.679      6724.9433      48.731617      2.3577398     -151509.12     -149798.32    
     36900   716.78944      8402.884       6724.9433      48.731617      2.3577398     -151518.75     -149822.27    
     37000   722.81957      30199.474      6724.9433      48.731617      2.3577398     -151577.62     -149866.88    
     37100   692.58299      5085.6521      6724.9433      48.731617      2.3577398     -151531.62     -149892.44    
     37200   690.95848     -11457.476      6724.9433      48.731617      2.3577398     -151529.42     -149894.09    
     37300   707.82349      4732.8612      6724.9433      48.731617      2.3577398     -151505.24     -149829.99    
     37400   737.64535      17442.755      6724.9433      48.731617      2.3577398     -151470.33     -149724.49    
     37500   694.34602      53585.886      6724.9433      48.731617      2.3577398     -151393.57     -149750.21    
     37600   723.49878      27575.063      6724.9433      48.731617      2.3577398     -151556.35     -149844       
     37700   698.97051      19560.81       6724.9433      48.731617      2.3577398     -151548.92     -149894.62    
     37800   695.52409      5271.6476      6724.9433      48.731617      2.3577398     -151537.98     -149891.84    
     37900   695.39259      58778.689      6724.9433      48.731617      2.3577398     -151545.47     -149899.64    
     38000   678.87067     -12000.997      6724.9433      48.731617      2.3577398     -151555.89     -149949.16    
     38100   678.40021     -20744.577      6724.9433      48.731617      2.3577398     -151596.91     -149991.29    
     38200   686.03103      67817.423      6724.9433      48.731617      2.3577398     -151563.5      -149939.83    
     38300   688.83345      37471.715      6724.9433      48.731617      2.3577398     -151462.6      -149832.29    
     38400   702.29256     -15946.61       6724.9433      48.731617      2.3577398     -151482.42     -149820.26    
     38500   720.17664      17033.23       6724.9433      48.731617      2.3577398     -151557.38     -149852.89    
     38600   656.63166      64238.862      6724.9433      48.731617      2.3577398     -151502.81     -149948.72    
     38700   685.00785      35612.901      6724.9433      48.731617      2.3577398     -151614.21     -149992.96    
     38800   711.40507     -36102.658      6724.9433      48.731617      2.3577398     -151548.59     -149864.86    
     38900   714.49977      34682.688      6724.9433      48.731617      2.3577398     -151471.14     -149780.09    
     39000   719.79677     -1241.496       6724.9433      48.731617      2.3577398     -151509.48     -149805.89    
     39100   702.36897      79036.077      6724.9433      48.731617      2.3577398     -151560.9      -149898.56    
     39200   713.18242      13589.841      6724.9433      48.731617      2.3577398     -151642.18     -149954.24    
     39300   695.87916      62971.573      6724.9433      48.731617      2.3577398     -151587.74     -149940.76    
     39400   686.7537       14998.644      6724.9433      48.731617      2.3577398     -151465.72     -149840.34    
     39500   706.13516      49533.84       6724.9433      48.731617      2.3577398     -151461.11     -149789.86    
     39600   715.52648      6111.5162      6724.9433      48.731617      2.3577398     -151515.87     -149822.39    
     39700   694.62351     -18723.251      6724.9433      48.731617      2.3577398     -151538.29     -149894.28    
     39800   703.03078      25741.051      6724.9433      48.731617      2.3577398     -151592.07     -149928.16    
     39900   695.58887      13450.499      6724.9433      48.731617      2.3577398     -151582.29     -149936       
     40000   719.95425      13658.778      6724.9433      48.731617      2.3577398     -151557.79     -149853.83    
     40100   719.745        25561.822      6724.9433      48.731617      2.3577398     -151486.66     -149783.2     
     40200   677.73288     -9913.9001      6724.9433      48.731617      2.3577398     -151445.63     -149841.59    
     40300   694.64711      8246.3134      6724.9433      48.731617      2.3577398     -151563.72     -149919.66    
     40400   679.04409     -22504.679      6724.9433      48.731617      2.3577398     -151550.91     -149943.77    
     40500   693.04295      45860.565      6724.9433      48.731617      2.3577398     -151542.73     -149902.46    
     40600   705.16148     -107.64126      6724.9433      48.731617      2.3577398     -151507.74     -149838.79    
     40700   695.58367     -1104.2629      6724.9433      48.731617      2.3577398     -151454.28     -149808       
     40800   717.82031      37176.95       6724.9433      48.731617      2.3577398     -151517.58     -149818.67    
     40900   683.18324      62332.327      6724.9433      48.731617      2.3577398     -151465.68     -149848.75    
     41000   713.3028       29379.947      6724.9433      48.731617      2.3577398     -151604.86     -149916.64    
     41100   684.54067      11626.655      6724.9433      48.731617      2.3577398     -151601        -149980.86    
     41200   693.71706      12693.962      6724.9433      48.731617      2.3577398     -151595.94     -149954.08    
     41300   711.91266     -469.79822      6724.9433      48.731617      2.3577398     -151596.78     -149911.85    
     41400   697.08773     -11914.844      6724.9433      48.731617      2.3577398     -151533.79     -149883.95    
     41500   709.49147      5364.1052      6724.9433      48.731617      2.3577398     -151521.81     -149842.61    
     41600   713.56469      33876.142      6724.9433      48.731617      2.3577398     -151515.14     -149826.3     
     41700   715.05435     -1740.8315      6724.9433      48.731617      2.3577398     -151518.57     -149826.21    
     41800   669.8744       5447.2811      6724.9433      48.731617      2.3577398     -151492.27     -149906.83    
     41900   680.7245       4990.4311      6724.9433      48.731617      2.3577398     -151586.36     -149975.25    
     42000   699.86451     -6836.5376      6724.9433      48.731617      2.3577398     -151621.18     -149964.76    
     42100   726.82607      37613.302      6724.9433      48.731617      2.3577398     -151577.09     -149856.86    
     42200   688.46861      28341.76       6724.9433      48.731617      2.3577398     -151413.32     -149783.88    
     42300   726.78093     -29834.959      6724.9433      48.731617      2.3577398     -151513.42     -149793.3     
     42400   715.31666      1774.1993      6724.9433      48.731617      2.3577398     -151540.71     -149847.72    
     42500   700.3859      -51361.14       6724.9433      48.731617      2.3577398     -151560.7      -149903.05    
     42600   684.29521      47258.887      6724.9433      48.731617      2.3577398     -151528.49     -149908.93    
     42700   720.60933      9116.6195      6724.9433      48.731617      2.3577398     -151598.6      -149893.09    
     42800   706.91366     -43870.35       6724.9433      48.731617      2.3577398     -151567.52     -149894.42    
     42900   699.29745      1266.5768      6724.9433      48.731617      2.3577398     -151549.93     -149894.86    
     43000   676.53265      11542.414      6724.9433      48.731617      2.3577398     -151492.69     -149891.5     
     43100   695.41509      34558.725      6724.9433      48.731617      2.3577398     -151504.37     -149858.48    
     43200   737.75084     -34.754676      6724.9433      48.731617      2.3577398     -151509.86     -149763.77    
     43300   721.38444      124799.11      6724.9433      48.731617      2.3577398     -151486.68     -149779.34    
     43400   705.49827      62738.568      6724.9433      48.731617      2.3577398     -151539.79     -149870.04    
     43500   693.90404     -29947.258      6724.9433      48.731617      2.3577398     -151567.67     -149925.37    
     43600   685.84369      7964.8675      6724.9433      48.731617      2.3577398     -151584.16     -149960.93    
     43700   670.49098      23.155516      6724.9433      48.731617      2.3577398     -151618.6      -150031.7     
     43800   679.5089       22211.36       6724.9433      48.731617      2.3577398     -151716.57     -150108.34    
     43900   685.71396      26135.684      6724.9433      48.731617      2.3577398     -151665.35     -150042.42    
     44000   702.22576      23053.374      6724.9433      48.731617      2.3577398     -151600.56     -149938.55    
     44100   689.20591     -12225.662      6724.9433      48.731617      2.3577398     -151542.81     -149911.62    
     44200   706.36574      94524.078      6724.9433      48.731617      2.3577398     -151529.91     -149858.11    
     44300   700.74774     -4540.6851      6724.9433      48.731617      2.3577398     -151474.75     -149816.25    
     44400   707.13256      50253.953      6724.9433      48.731617      2.3577398     -151525.6      -149851.98    
     44500   658.55721     -19298.69       6724.9433      48.731617      2.3577398     -151534.09     -149975.44    
     44600   661.71946      4737.4084      6724.9433      48.731617      2.3577398     -151534.92     -149968.79    
     44700   707.03086      31641.832      6724.9433      48.731617      2.3577398     -151555.21     -149881.83    
     44800   698.00353     -76411.914      6724.9433      48.731617      2.3577398     -151491.86     -149839.85    
     44900   703.41614     -20236.448      6724.9433      48.731617      2.3577398     -151526.38     -149861.56    
     45000   686.39498      45099.921      6724.9433      48.731617      2.3577398     -151528.88     -149904.34    
     45100   672.60282      31025.132      6724.9433      48.731617      2.3577398     -151503.09     -149911.2     
     45200   731.97109      20412.601      6724.9433      48.731617      2.3577398     -151534.84     -149802.44    
     45300   755.47189     -49706.066      6724.9433      48.731617      2.3577398     -151534.46     -149746.43    
     45400   703.06414      30518.171      6724.9433      48.731617      2.3577398     -151498.01     -149834.02    
     45500   694.17877     -7657.7667      6724.9433      48.731617      2.3577398     -151549.25     -149906.29    
     45600   680.45667      102112.28      6724.9433      48.731617      2.3577398     -151541.79     -149931.31    
     45700   709.38291      6591.2445      6724.9433      48.731617      2.3577398     -151576.71     -149897.77    
     45800   711.53258     -37831.679      6724.9433      48.731617      2.3577398     -151471.69     -149787.66    
     45900   746.58207     -9286.9809      6724.9433      48.731617      2.3577398     -151471.13     -149704.15    
     46000   713.37599      122263         6724.9433      48.731617      2.3577398     -151448.89     -149760.5     
     46100   696.73531      55807.147      6724.9433      48.731617      2.3577398     -151467.04     -149818.04    
     46200   721.04595     -15892.75       6724.9433      48.731617      2.3577398     -151573.17     -149866.62    
     46300   691.46339     -14798.562      6724.9433      48.731617      2.3577398     -151572.92     -149936.39    
     46400   691.94707      59477.339      6724.9433      48.731617      2.3577398     -151584.96     -149947.29    
     46500   719.54987      18853.879      6724.9433      48.731617      2.3577398     -151537.18     -149834.18    
     46600   713.14671      35757.667      6724.9433      48.731617      2.3577398     -151458.57     -149770.72    
     46700   724.21127      9258.5685      6724.9433      48.731617      2.3577398     -151536.44     -149822.41    
     46800   701.46973      730.44368      6724.9433      48.731617      2.3577398     -151563.57     -149903.35    
     46900   720.92874      60786.2        6724.9433      48.731617      2.3577398     -151648.06     -149941.79    
     47000   687.55948      25361.941      6724.9433      48.731617      2.3577398     -151576.95     -149949.66    
     47100   721.54228     -20925.997      6724.9433      48.731617      2.3577398     -151535.38     -149827.66    
     47200   738.98602     -12020.91       6724.9433      48.731617      2.3577398     -151516.05     -149767.04    
     47300   707.80295      31814.038      6724.9433      48.731617      2.3577398     -151500.22     -149825.02    
     47400   703.14786      44854.332      6724.9433      48.731617      2.3577398     -151571.04     -149906.85    
     47500   693.64898      59500.99       6724.9433      48.731617      2.3577398     -151545.46     -149903.76    
     47600   724.01729     -17547.366      6724.9433      48.731617      2.3577398     -151594.44     -149880.86    
     47700   702.83437     -53548.708      6724.9433      48.731617      2.3577398     -151568.84     -149905.4     
     47800   683.74649      31151.287      6724.9433      48.731617      2.3577398     -151604.58     -149986.31    
     47900   675.74088      25000.473      6724.9433      48.731617      2.3577398     -151608.91     -150009.59    
     48000   704.33396      33366.389      6724.9433      48.731617      2.3577398     -151578.91     -149911.92    
     48100   696.49672      11549.453      6724.9433      48.731617      2.3577398     -151491.02     -149842.58    
     48200   723.39007      22134.405      6724.9433      48.731617      2.3577398     -151540.41     -149828.32    
     48300   704.30773      43605.575      6724.9433      48.731617      2.3577398     -151536.99     -149870.06    
     48400   678.30262      3148.9616      6724.9433      48.731617      2.3577398     -151573.27     -149967.89    
     48500   674.14788      24908.026      6724.9433      48.731617      2.3577398     -151617.53     -150021.98    
     48600   692.97734     -28055.153      6724.9433      48.731617      2.3577398     -151573.06     -149932.95    
     48700   723.98723      57667.5        6724.9433      48.731617      2.3577398     -151531.37     -149817.86    
     48800   696.12145      35849.783      6724.9433      48.731617      2.3577398     -151475.08     -149827.52    
     48900   716.56783      21797.193      6724.9433      48.731617      2.3577398     -151581.28     -149885.33    
     49000   685.78838      31294.807      6724.9433      48.731617      2.3577398     -151565.49     -149942.39    
     49100   692.9251      -38388.204      6724.9433      48.731617      2.3577398     -151588.02     -149948.03    
     49200   689.45139      10597.804      6724.9433      48.731617      2.3577398     -151576.81     -149945.04    
     49300   704.5457       27667.107      6724.9433      48.731617      2.3577398     -151525.27     -149857.77    
     49400   713.66679     -33905.228      6724.9433      48.731617      2.3577398     -151483.53     -149794.45    
     49500   688.81288      11641.85       6724.9433      48.731617      2.3577398     -151454.93     -149824.68    
     49600   695.99312      24215.365      6724.9433      48.731617      2.3577398     -151558.91     -149911.66    
     49700   658.8865       12596.062      6724.9433      48.731617      2.3577398     -151543.8      -149984.38    
     49800   693.45283      33724.416      6724.9433      48.731617      2.3577398     -151598.16     -149956.92    
     49900   733.24828     -21450.272      6724.9433      48.731617      2.3577398     -151666.77     -149931.35    
     50000   707.17554      16361.783      6724.9433      48.731617      2.3577398     -151571.53     -149897.81    
     50100   709.24617      5322.0828      6724.9433      48.731617      2.3577398     -151527.48     -149848.86    
     50200   708.07709      5312.894       6724.9433      48.731617      2.3577398     -151500.74     -149824.88    
     50300   723.13033      20873.125      6724.9433      48.731617      2.3577398     -151518.36     -149806.88    
     50400   670.16717      13634.572      6724.9433      48.731617      2.3577398     -151436.57     -149850.44    
     50500   684.33712      1901.6103      6724.9433      48.731617      2.3577398     -151528.48     -149908.82    
     50600   689.6795       37925.095      6724.9433      48.731617      2.3577398     -151597.79     -149965.48    
     50700   706.42797     -67053.482      6724.9433      48.731617      2.3577398     -151632.52     -149960.57    
     50800   709.54695      21864.236      6724.9433      48.731617      2.3577398     -151528.09     -149848.76    
     50900   687.79446      66787.325      6724.9433      48.731617      2.3577398     -151440.8      -149812.95    
     51000   725.49219     -235.38354      6724.9433      48.731617      2.3577398     -151538.21     -149821.14    
     51100   669.84388      21971.815      6724.9433      48.731617      2.3577398     -151531.52     -149946.16    
     51200   668.28593     -26707.168      6724.9433      48.731617      2.3577398     -151545.69     -149964.02    
     51300   731.86775     -20997.508      6724.9433      48.731617      2.3577398     -151645.29     -149913.13    
     51400   687.28938      1947.513       6724.9433      48.731617      2.3577398     -151508.11     -149881.46    
     51500   706.17884      32167.95       6724.9433      48.731617      2.3577398     -151500.47     -149829.11    
     51600   708.01348     -37643.341      6724.9433      48.731617      2.3577398     -151494.05     -149818.35    
     51700   711.38315      12271.897      6724.9433      48.731617      2.3577398     -151561.81     -149878.13    
     51800   674.68579      38987.984      6724.9433      48.731617      2.3577398     -151552.06     -149955.24    
     51900   690.96672      35480.923      6724.9433      48.731617      2.3577398     -151560.76     -149925.4     
     52000   697.00173      10097.393      6724.9433      48.731617      2.3577398     -151483.74     -149834.1     
     52100   716.20726      9487.337       6724.9433      48.731617      2.3577398     -151501.38     -149806.28    
     52200   707.4753       31270.133      6724.9433      48.731617      2.3577398     -151529.08     -149854.65    
     52300   686.91537     -23989.571      6724.9433      48.731617      2.3577398     -151557.85     -149932.08    
     52400   662.53371     -300.17364      6724.9433      48.731617      2.3577398     -151640.42     -150072.36    
     52500   677.27816      39265.321      6724.9433      48.731617      2.3577398     -151678.48     -150075.52    
     52600   656.34291      9274.8953      6724.9433      48.731617      2.3577398     -151565.47     -150012.07    
     52700   710.07382      53810.182      6724.9433      48.731617      2.3577398     -151591.64     -149911.06    
     52800   694.55432      23763.323      6724.9433      48.731617      2.3577398     -151491.96     -149848.12    
     52900   671.25982     -34460.908      6724.9433      48.731617      2.3577398     -151413.15     -149824.43    
     53000   708.43164     -32036.034      6724.9433      48.731617      2.3577398     -151510.86     -149834.17    
     53100   712.44134      26483.09       6724.9433      48.731617      2.3577398     -151562.74     -149876.56    
     53200   657.56525      54645.23       6724.9433      48.731617      2.3577398     -151507.59     -149951.29    
     53300   704.65908     -24178.413      6724.9433      48.731617      2.3577398     -151602.24     -149934.48    
     53400   687.3827      -13264.157      6724.9433      48.731617      2.3577398     -151471.99     -149845.11    
     53500   713.50126      14965.496      6724.9433      48.731617      2.3577398     -151463.98     -149775.3     
     53600   708.90564      91801.533      6724.9433      48.731617      2.3577398     -151482.31     -149804.5     
     53700   670.91098     -7264.4257      6724.9433      48.731617      2.3577398     -151450.82     -149862.93    
     53800   705.0187       29210.139      6724.9433      48.731617      2.3577398     -151534.27     -149865.66    
     53900   716.66253     -27040.119      6724.9433      48.731617      2.3577398     -151585.87     -149889.7     
     54000   696.42522     -9232.4423      6724.9433      48.731617      2.3577398     -151586.09     -149937.82    
     54100   651.78816      43032.183      6724.9433      48.731617      2.3577398     -151569.16     -150026.53    
     54200   701.39123      27981.849      6724.9433      48.731617      2.3577398     -151684.97     -150024.95    
     54300   692.60006     -9605.903       6724.9433      48.731617      2.3577398     -151545.3      -149906.08    
     54400   702.52656      29392.011      6724.9433      48.731617      2.3577398     -151513.4      -149850.68    
     54500   728.129        58520.314      6724.9433      48.731617      2.3577398     -151574.77     -149851.47    
     54600   710.85531     -14086.864      6724.9433      48.731617      2.3577398     -151575.24     -149892.81    
     54700   674.82096      19767.372      6724.9433      48.731617      2.3577398     -151556.74     -149959.6     
     54800   667.12985      22189.47       6724.9433      48.731617      2.3577398     -151614.52     -150035.59    
     54900   670.31808      43290.003      6724.9433      48.731617      2.3577398     -151595.9      -150009.41    
     55000   720.95389     -2968.3662      6724.9433      48.731617      2.3577398     -151588.85     -149882.53    
     55100   724.59099      16193.979      6724.9433      48.731617      2.3577398     -151566.46     -149851.52    
     55200   713.82972     -5715.3772      6724.9433      48.731617      2.3577398     -151532.31     -149842.84    
     55300   667.80291      54926.152      6724.9433      48.731617      2.3577398     -151505.52     -149924.99    
     55400   675.7815       49677.968      6724.9433      48.731617      2.3577398     -151591.95     -149992.53    
     55500   684.00222      30227.211      6724.9433      48.731617      2.3577398     -151584.73     -149965.86    
     55600   705.33024      7176.7805      6724.9433      48.731617      2.3577398     -151558.52     -149889.17    
     55700   697.8117       47188.395      6724.9433      48.731617      2.3577398     -151527.02     -149875.46    
     55800   692.91089      30542.088      6724.9433      48.731617      2.3577398     -151515.08     -149875.12    
     55900   714.69836     -9172.2754      6724.9433      48.731617      2.3577398     -151566.94     -149875.42    
     56000   695.79683     -21406.132      6724.9433      48.731617      2.3577398     -151588.96     -149942.18    
     56100   678.28916     -22350.338      6724.9433      48.731617      2.3577398     -151615.81     -150010.46    
     56200   664.23557      26019.349      6724.9433      48.731617      2.3577398     -151548.92     -149976.83    
     56300   691.25302      21253.166      6724.9433      48.731617      2.3577398     -151474.74     -149838.71    
     56400   676.80027     -1954.8502      6724.9433      48.731617      2.3577398     -151434.56     -149832.73    
     56500   679.60634     -13152.68       6724.9433      48.731617      2.3577398     -151509.92     -149901.46    
     56600   686.81151     -7867.5598      6724.9433      48.731617      2.3577398     -151599.03     -149973.51    
     56700   656.50739      20150.241      6724.9433      48.731617      2.3577398     -151527.31     -149973.51    
     56800   689.68704      7900.2645      6724.9433      48.731617      2.3577398     -151530.54     -149898.21    
     56900   695.25683     -50624.852      6724.9433      48.731617      2.3577398     -151524.18     -149878.67    
     57000   718.72617      30715.348      6724.9433      48.731617      2.3577398     -151574.48     -149873.43    
     57100   712.32528      22625.66       6724.9433      48.731617      2.3577398     -151533.6      -149847.7     
     57200   719.39228      46413.629      6724.9433      48.731617      2.3577398     -151506.78     -149804.15    
     57300   737.71763     -70752.451      6724.9433      48.731617      2.3577398     -151553.97     -149807.97    
     57400   683.73725      20252.5        6724.9433      48.731617      2.3577398     -151548.33     -149930.08    
     57500   710.05581      96482.687      6724.9433      48.731617      2.3577398     -151636.28     -149955.75    
     57600   671.83111      24115.595      6724.9433      48.731617      2.3577398     -151544.15     -149954.08    
     57700   718.02511     -32121.937      6724.9433      48.731617      2.3577398     -151555.52     -149856.12    
     57800   723.25335      10600.419      6724.9433      48.731617      2.3577398     -151491.71     -149779.94    
     57900   701.11978      99274.573      6724.9433      48.731617      2.3577398     -151479.26     -149819.87    
     58000   717.36668      8627.021       6724.9433      48.731617      2.3577398     -151539.78     -149841.94    
     58100   733.47696     -5223.0287      6724.9433      48.731617      2.3577398     -151611.42     -149875.45    
     58200   702.1431      -52114.311      6724.9433      48.731617      2.3577398     -151581.16     -149919.36    
     58300   719.13131      90008.605      6724.9433      48.731617      2.3577398     -151622.38     -149920.36    
     58400   691.40621      25045.449      6724.9433      48.731617      2.3577398     -151515.81     -149879.41    
     58500   712.78466      58739.075      6724.9433      48.731617      2.3577398     -151461.72     -149774.73    
     58600   710.4022       57952.466      6724.9433      48.731617      2.3577398     -151473.31     -149791.95    
     58700   705.16751      61915.046      6724.9433      48.731617      2.3577398     -151549.55     -149880.59    
     58800   726.27835      9930.3112      6724.9433      48.731617      2.3577398     -151643.27     -149924.34    
     58900   707.56713      13419.601      6724.9433      48.731617      2.3577398     -151600.07     -149925.43    
     59000   698.27466      29971.779      6724.9433      48.731617      2.3577398     -151556.04     -149903.39    
     59100   688.66969      52645.165      6724.9433      48.731617      2.3577398     -151493.94     -149864.02    
     59200   709.44573      11928.39       6724.9433      48.731617      2.3577398     -151493.96     -149814.87    
     59300   729.22988     -15442.502      6724.9433      48.731617      2.3577398     -151403.68     -149677.77    
     59400   744.44168      22852.289      6724.9433      48.731617      2.3577398     -151455.17     -149693.25    
     59500   730.92986      62992.816      6724.9433      48.731617      2.3577398     -151548.14     -149818.2     
     59600   685.60927      17379.67       6724.9433      48.731617      2.3577398     -151512.92     -149890.25    
     59700   677.41933      3086.3709      6724.9433      48.731617      2.3577398     -151497.61     -149894.32    
     59800   718.03689      37862.105      6724.9433      48.731617      2.3577398     -151566.62     -149867.2     
     59900   702.46681      89095.994      6724.9433      48.731617      2.3577398     -151532.56     -149869.99    
     60000   737.99853      31308.245      6724.9433      48.731617      2.3577398     -151613.12     -149866.46    
     60100   676.4123      -13563.037      6724.9433      48.731617      2.3577398     -151528.74     -149927.83    
     60200   699.68734      39554.509      6724.9433      48.731617      2.3577398     -151629.44     -149973.45    
     60300   700.40627      56129.185      6724.9433      48.731617      2.3577398     -151644.59     -149986.89    
     60400   698.17891      3493.9493      6724.9433      48.731617      2.3577398     -151533.31     -149880.88    
     60500   742.80506      31540.497      6724.9433      48.731617      2.3577398     -151544.86     -149786.82    
     60600   710.42028     -232.38184      6724.9433      48.731617      2.3577398     -151480.48     -149799.09    
     60700   687.14283     -7019.3974      6724.9433      48.731617      2.3577398     -151505.23     -149878.92    
     60800   693.66522      22396.079      6724.9433      48.731617      2.3577398     -151590.51     -149948.77    
     60900   693.57261      27455.143      6724.9433      48.731617      2.3577398     -151582.33     -149940.81    
     61000   683.74478      12197.508      6724.9433      48.731617      2.3577398     -151539.21     -149920.95    
     61100   681.94294      5322.734       6724.9433      48.731617      2.3577398     -151501.49     -149887.49    
     61200   719.96035      28783.871      6724.9433      48.731617      2.3577398     -151560.37     -149856.4     
     61300   719.14985      46898.849      6724.9433      48.731617      2.3577398     -151548.43     -149846.37    
     61400   682.90848      33133.179      6724.9433      48.731617      2.3577398     -151480.18     -149863.9     
     61500   706.13014      19912.703      6724.9433      48.731617      2.3577398     -151566.86     -149895.62    
     61600   721.08707      54708.105      6724.9433      48.731617      2.3577398     -151606.25     -149899.61    
     61700   665.47275     -2829.4532      6724.9433      48.731617      2.3577398     -151459.1      -149884.09    
     61800   723.58839      25351.206      6724.9433      48.731617      2.3577398     -151523.58     -149811.02    
     61900   741.53831      44106.328      6724.9433      48.731617      2.3577398     -151526.56     -149771.51    
     62000   700.03617      35610.943      6724.9433      48.731617      2.3577398     -151534.3      -149877.48    
     62100   706.73572     -22865.376      6724.9433      48.731617      2.3577398     -151621.98     -149949.3     
     62200   679.37788      20877.143      6724.9433      48.731617      2.3577398     -151553.27     -149945.35    
     62300   718.68628      17434.224      6724.9433      48.731617      2.3577398     -151578.01     -149877.05    
     62400   731.37321      65085.088      6724.9433      48.731617      2.3577398     -151518.25     -149787.26    
     62500   714.1963      -34823.118      6724.9433      48.731617      2.3577398     -151446.46     -149756.13    
     62600   681.28761      20508.718      6724.9433      48.731617      2.3577398     -151507.46     -149895.02    
     62700   684.86924     -3283.74        6724.9433      48.731617      2.3577398     -151595.56     -149974.63    
     62800   697.87995      59160.111      6724.9433      48.731617      2.3577398     -151600.54     -149948.82    
     62900   720.07464      16569.613      6724.9433      48.731617      2.3577398     -151565.93     -149861.68    
     63000   704.62591      734.26351      6724.9433      48.731617      2.3577398     -151478.79     -149811.11    
     63100   727.51526      42859.783      6724.9433      48.731617      2.3577398     -151524.43     -149802.58    
     63200   691.93173      4916.9822      6724.9433      48.731617      2.3577398     -151547.51     -149909.87    
     63300   669.05454      2458.2535      6724.9433      48.731617      2.3577398     -151579.36     -149995.87    
     63400   699.58721     -16918.163      6724.9433      48.731617      2.3577398     -151622.06     -149966.3     
     63500   693.69435     -56751.019      6724.9433      48.731617      2.3577398     -151533.9      -149892.09    
     63600   729.90117      24609.261      6724.9433      48.731617      2.3577398     -151547.58     -149820.08    
     63700   700.99518      9083.5502      6724.9433      48.731617      2.3577398     -151495.01     -149835.92    
     63800   671.61956     -50153.711      6724.9433      48.731617      2.3577398     -151463.06     -149873.49    
     63900   690.70704      23693.908      6724.9433      48.731617      2.3577398     -151528.24     -149893.5     
     64000   695.91243      45416.501      6724.9433      48.731617      2.3577398     -151531.48     -149884.42    
     64100   730.40571     -10542.344      6724.9433      48.731617      2.3577398     -151474.83     -149746.13    
     64200   725.73506      23409.03       6724.9433      48.731617      2.3577398     -151459.39     -149741.75    
     64300   704.53731     -2708.8634      6724.9433      48.731617      2.3577398     -151505.91     -149838.44    
     64400   712.01216      10298.526      6724.9433      48.731617      2.3577398     -151575.86     -149890.69    
     64500   683.95075      35674.997      6724.9433      48.731617      2.3577398     -151547.65     -149928.9     
[...]
    384200   680.16514     -19710.757      6724.9433      48.731617      2.3577398     -151669.38     -150059.59    
    384300   661.59817      10250.903      6724.9433      48.731617      2.3577398     -151621.83     -150055.99    
    384400   697.94617      12940.879      6724.9433      48.731617      2.3577398     -151624.94     -149973.07    
    384500   699.17404      4586.1939      6724.9433      48.731617      2.3577398     -151576.22     -149921.44    
    384600   705.27739      1768.9074      6724.9433      48.731617      2.3577398     -151514.17     -149844.95    
    384700   725.28869      30511.097      6724.9433      48.731617      2.3577398     -151537.94     -149821.35    
    384800   696.90219      26310.843      6724.9433      48.731617      2.3577398     -151520.73     -149871.33    
    384900   681.04048      27761.664      6724.9433      48.731617      2.3577398     -151593.33     -149981.47    
    385000   678.27479      868.04871      6724.9433      48.731617      2.3577398     -151618.04     -150012.73    
    385100   694.06758      28695.027      6724.9433      48.731617      2.3577398     -151600.28     -149957.59    
    385200   713.60215      105185.17      6724.9433      48.731617      2.3577398     -151593.26     -149904.33    
    385300   683.8137       23904.731      6724.9433      48.731617      2.3577398     -151504.91     -149886.49    
    385400   713.40993     -12385.223      6724.9433      48.731617      2.3577398     -151528.57     -149840.1     
    385500   714.09084      13684.004      6724.9433      48.731617      2.3577398     -151560.97     -149870.89    
    385600   678.94453      33041.214      6724.9433      48.731617      2.3577398     -151599.8      -149992.9     
    385700   693.77026     -6629.8727      6724.9433      48.731617      2.3577398     -151643.28     -150001.29    
    385800   702.05907     -39936.563      6724.9433      48.731617      2.3577398     -151620.97     -149959.36    
    385900   708.32797     -19556.243      6724.9433      48.731617      2.3577398     -151571.64     -149895.2     
    386000   717.82867      38993.828      6724.9433      48.731617      2.3577398     -151469.31     -149770.38    
    386100   724.54903      33572.253      6724.9433      48.731617      2.3577398     -151437.26     -149722.42    
    386200   723.90997      1248.9998      6724.9433      48.731617      2.3577398     -151511.1      -149797.78    
    386300   698.78017      4269.5417      6724.9433      48.731617      2.3577398     -151509.04     -149855.19    
    386400   714.90575      3066.8737      6724.9433      48.731617      2.3577398     -151589.66     -149897.65    
    386500   668.66582      51207.458      6724.9433      48.731617      2.3577398     -151545.55     -149962.98    
    386600   671.32838      99384.963      6724.9433      48.731617      2.3577398     -151516.62     -149927.75    
    386700   718.03402     -21887.124      6724.9433      48.731617      2.3577398     -151479.1      -149779.68    
    386800   728.32301     -33758.182      6724.9433      48.731617      2.3577398     -151534.96     -149811.2     
    386900   693.25115      37205.684      6724.9433      48.731617      2.3577398     -151550.24     -149909.48    
    387000   661.75987      77529.61       6724.9433      48.731617      2.3577398     -151511.45     -149945.22    
    387100   715.1807       39074.616      6724.9433      48.731617      2.3577398     -151589.12     -149896.46    
    387200   724.16661     -42156.878      6724.9433      48.731617      2.3577398     -151531.76     -149817.83    
    387300   716.43023      33437.604      6724.9433      48.731617      2.3577398     -151487.09     -149791.47    
    387400   730.9936       11453.409      6724.9433      48.731617      2.3577398     -151530.85     -149800.76    
    387500   694.19737      37827.276      6724.9433      48.731617      2.3577398     -151536.13     -149893.13    
    387600   690.99793     -3194.8945      6724.9433      48.731617      2.3577398     -151579.92     -149944.49    
    387700   685.68259      52955.689      6724.9433      48.731617      2.3577398     -151539.04     -149916.19    
    387800   715.6703      -14326.524      6724.9433      48.731617      2.3577398     -151528.53     -149834.71    
    387900   723.63728      9658.6188      6724.9433      48.731617      2.3577398     -151467.48     -149754.8     
    388000   718.00825     -8796.7529      6724.9433      48.731617      2.3577398     -151500.98     -149801.62    
    388100   693.23097      25755.912      6724.9433      48.731617      2.3577398     -151493.23     -149852.51    
    388200   725.41262      46345.78       6724.9433      48.731617      2.3577398     -151581.64     -149864.76    
    388300   710.27487     -8812.6524      6724.9433      48.731617      2.3577398     -151608.03     -149926.98    
    388400   675.94725      19593.196      6724.9433      48.731617      2.3577398     -151587.24     -149987.44    
    388500   682.0703       62419.968      6724.9433      48.731617      2.3577398     -151592.07     -149977.77    
    388600   715.23823      36515.474      6724.9433      48.731617      2.3577398     -151512.47     -149819.67    
    388700   722.58275      6310.0016      6724.9433      48.731617      2.3577398     -151513.07     -149802.89    
    388800   717.56718      5721.2332      6724.9433      48.731617      2.3577398     -151547.38     -149849.07    
    388900   695.52561     -15049.728      6724.9433      48.731617      2.3577398     -151589.29     -149943.14    
    389000   682.11508     -29521.073      6724.9433      48.731617      2.3577398     -151555.02     -149940.61    
    389100   724.06258      61657.361      6724.9433      48.731617      2.3577398     -151590.79     -149877.11    
    389200   710.41786      39921.493      6724.9433      48.731617      2.3577398     -151546.35     -149864.96    
    389300   694.61262      9361.1181      6724.9433      48.731617      2.3577398     -151530.96     -149886.97    
    389400   696.59972      48085.043      6724.9433      48.731617      2.3577398     -151563.6      -149914.92    
    389500   705.43917      14360.525      6724.9433      48.731617      2.3577398     -151639.99     -149970.39    
    389600   650.44412     -20878.845      6724.9433      48.731617      2.3577398     -151594.09     -150054.64    
    389700   705.88759      60595.876      6724.9433      48.731617      2.3577398     -151684.99     -150014.32    
    389800   715.58749      13778.833      6724.9433      48.731617      2.3577398     -151588.99     -149895.36    
    389900   696.62153      52176.009      6724.9433      48.731617      2.3577398     -151527.04     -149878.3     
    390000   733.09395      19559.249      6724.9433      48.731617      2.3577398     -151600.21     -149865.15    
    390100   697.09236      43862.04       6724.9433      48.731617      2.3577398     -151541.89     -149892.04    
    390200   679.7843       10060.545      6724.9433      48.731617      2.3577398     -151590.34     -149981.45    
    390300   672.63625     -17127.286      6724.9433      48.731617      2.3577398     -151597.75     -150005.78    
    390400   712.4777       33352.107      6724.9433      48.731617      2.3577398     -151578.6      -149892.33    
    390500   709.39748      16039.674      6724.9433      48.731617      2.3577398     -151538.15     -149859.18    
    390600   706.93092      46763.765      6724.9433      48.731617      2.3577398     -151555.97     -149882.83    
    390700   693.40453      41267.903      6724.9433      48.731617      2.3577398     -151571.17     -149930.04    
    390800   707.42362      32288.176      6724.9433      48.731617      2.3577398     -151659.67     -149985.37    
    390900   676.50455     -12497.897      6724.9433      48.731617      2.3577398     -151635.57     -150034.45    
    391000   674.12809     -1676.0732      6724.9433      48.731617      2.3577398     -151577.14     -149981.64    
    391100   726.20773     -27933.286      6724.9433      48.731617      2.3577398     -151595.3      -149876.54    
    391200   716.90001      52653.439      6724.9433      48.731617      2.3577398     -151540.47     -149843.74    
    391300   715.85992      31498.556      6724.9433      48.731617      2.3577398     -151527.73     -149833.46    
    391400   722.86191      12108.982      6724.9433      48.731617      2.3577398     -151538.51     -149827.67    
    391500   701.3838      -23235.442      6724.9433      48.731617      2.3577398     -151538.52     -149878.51    
    391600   681.83749      20026.619      6724.9433      48.731617      2.3577398     -151570.34     -149956.59    
    391700   694.35506      4185.6401      6724.9433      48.731617      2.3577398     -151609.88     -149966.51    
    391800   716.12614      6009.6081      6724.9433      48.731617      2.3577398     -151581.95     -149887.05    
    391900   731.96464     -12172.331      6724.9433      48.731617      2.3577398     -151519.3      -149786.91    
    392000   714.56245      49116.592      6724.9433      48.731617      2.3577398     -151488.53     -149797.33    
    392100   704.58015      71676.293      6724.9433      48.731617      2.3577398     -151523.98     -149856.41    
    392200   684.18885     -20435.309      6724.9433      48.731617      2.3577398     -151509.2      -149889.89    
    392300   686.67807      4287.1069      6724.9433      48.731617      2.3577398     -151518.62     -149893.41    
    392400   725.89764      86674.933      6724.9433      48.731617      2.3577398     -151575.14     -149857.11    
    392500   743.44316      26270.111      6724.9433      48.731617      2.3577398     -151471.9      -149712.34    
    392600   736.12375     -20045.287      6724.9433      48.731617      2.3577398     -151433.06     -149690.83    
    392700   717.98159      37828.825      6724.9433      48.731617      2.3577398     -151494.62     -149795.32    
    392800   700.11596      69627.222      6724.9433      48.731617      2.3577398     -151519.77     -149862.76    
    392900   681.27319     -13326.27       6724.9433      48.731617      2.3577398     -151537.07     -149924.66    
    393000   691.65939     -18958.972      6724.9433      48.731617      2.3577398     -151591.12     -149954.13    
    393100   702.05501      46729.284      6724.9433      48.731617      2.3577398     -151587.59     -149925.99    
    393200   692.99534      35487.726      6724.9433      48.731617      2.3577398     -151434.74     -149794.58    
    393300   736.9121       26293.549      6724.9433      48.731617      2.3577398     -151517.16     -149773.06    
    393400   742.59386     -20195.581      6724.9433      48.731617      2.3577398     -151612.98     -149855.43    
    393500   703.63211      63516.875      6724.9433      48.731617      2.3577398     -151570.66     -149905.33    
    393600   678.975       -4029.9452      6724.9433      48.731617      2.3577398     -151516.49     -149909.52    
    393700   650.88029      24692.296      6724.9433      48.731617      2.3577398     -151456.89     -149916.41    
    393800   736.2868       44060.514      6724.9433      48.731617      2.3577398     -151601.16     -149858.54    
    393900   748.66463      11214.504      6724.9433      48.731617      2.3577398     -151546.42     -149774.51    
    394000   701.97452      479.27851      6724.9433      48.731617      2.3577398     -151470.18     -149808.77    
    394100   679.1737       19822.1        6724.9433      48.731617      2.3577398     -151524.42     -149916.97    
    394200   668.71447      70273.802      6724.9433      48.731617      2.3577398     -151521.52     -149938.83    
    394300   698.4626       4966.7204      6724.9433      48.731617      2.3577398     -151563.36     -149910.27    
    394400   698.42681      31265.654      6724.9433      48.731617      2.3577398     -151519.81     -149866.79    
    394500   722.28174     -5747.0768      6724.9433      48.731617      2.3577398     -151520.09     -149810.62    
    394600   739.37621     -18741.908      6724.9433      48.731617      2.3577398     -151441.73     -149691.8     
    394700   725.31753      60484.797      6724.9433      48.731617      2.3577398     -151482.01     -149765.35    
    394800   725.7117       34035.143      6724.9433      48.731617      2.3577398     -151575.64     -149858.05    
    394900   669.16236     -29390.923      6724.9433      48.731617      2.3577398     -151493.19     -149909.44    
    395000   676.83691      57315.329      6724.9433      48.731617      2.3577398     -151533.79     -149931.88    
    395100   729.96942      76932.909      6724.9433      48.731617      2.3577398     -151653.26     -149925.6     
    395200   704.03326      32264.01       6724.9433      48.731617      2.3577398     -151545.12     -149878.84    
    395300   689.95206      26802.33       6724.9433      48.731617      2.3577398     -151432.93     -149799.98    
    395400   738.78314      14715.495      6724.9433      48.731617      2.3577398     -151511.71     -149763.19    
    395500   722.37245      34585.964      6724.9433      48.731617      2.3577398     -151581.75     -149872.06    
    395600   696.04254      7384.5305      6724.9433      48.731617      2.3577398     -151588.78     -149941.41    
    395700   727.24553     -7735.4874      6724.9433      48.731617      2.3577398     -151638.64     -149917.42    
    395800   695.49109     -17030.837      6724.9433      48.731617      2.3577398     -151518.77     -149872.71    
    395900   721.18277      74713.411      6724.9433      48.731617      2.3577398     -151495.78     -149788.91    
    396000   723.85298     -4686.2141      6724.9433      48.731617      2.3577398     -151480.87     -149767.68    
    396100   710.44692      22274.231      6724.9433      48.731617      2.3577398     -151578.43     -149896.97    
    396200   703.33202      42870.325      6724.9433      48.731617      2.3577398     -151627.32     -149962.7     
    396300   667.05982     -24823.728      6724.9433      48.731617      2.3577398     -151544.69     -149965.92    
    396400   692.4014       16849.397      6724.9433      48.731617      2.3577398     -151530.35     -149891.6     
    396500   708.31781     -26755.83       6724.9433      48.731617      2.3577398     -151500.57     -149824.15    
    396600   739.06591      13795.072      6724.9433      48.731617      2.3577398     -151512.2      -149763       
    396700   715.88782      75925.139      6724.9433      48.731617      2.3577398     -151484.09     -149789.75    
    396800   706.41259      3445.6166      6724.9433      48.731617      2.3577398     -151568.44     -149896.53    
    396900   666.09755      33710.756      6724.9433      48.731617      2.3577398     -151522.34     -149945.84    
    397000   718.46937      13744.492      6724.9433      48.731617      2.3577398     -151590.34     -149889.89    
    397100   700.44648      39339.44       6724.9433      48.731617      2.3577398     -151493.46     -149835.67    
    397200   728.99437      45464.659      6724.9433      48.731617      2.3577398     -151455.96     -149730.6     
    397300   717.76138     -21244.746      6724.9433      48.731617      2.3577398     -151403.92     -149705.15    
    397400   714.12913      32949.701      6724.9433      48.731617      2.3577398     -151554.74     -149864.56    
    397500   704.82543      38996.027      6724.9433      48.731617      2.3577398     -151585.56     -149917.4     
    397600   699.561       -32658.279      6724.9433      48.731617      2.3577398     -151586.77     -149931.07    
    397700   720.56744     -13007.885      6724.9433      48.731617      2.3577398     -151641.18     -149935.77    
    397800   705.04726      10496.012      6724.9433      48.731617      2.3577398     -151571.72     -149903.04    
    397900   715.04339      34061.875      6724.9433      48.731617      2.3577398     -151517.91     -149825.57    
    398000   705.51565     -17772.59       6724.9433      48.731617      2.3577398     -151445.03     -149775.25    
    398100   715.48356      3509.1056      6724.9433      48.731617      2.3577398     -151490.31     -149796.93    
    398200   699.21339     -20203.07       6724.9433      48.731617      2.3577398     -151584.84     -149929.96    
    398300   683.86267      16111.96       6724.9433      48.731617      2.3577398     -151582.79     -149964.24    
    398400   674.58482      51476.881      6724.9433      48.731617      2.3577398     -151527.29     -149930.7     
    398500   705.88053      69631.997      6724.9433      48.731617      2.3577398     -151491.98     -149821.33    
    398600   725.47838     -22762.434      6724.9433      48.731617      2.3577398     -151493.21     -149776.18    
    398700   717.26975     -8206.781       6724.9433      48.731617      2.3577398     -151524.72     -149827.12    
    398800   669.61961      31031.578      6724.9433      48.731617      2.3577398     -151500.92     -149916.09    
    398900   684.11277      16777.495      6724.9433      48.731617      2.3577398     -151562.47     -149943.34    
    399000   697.72551     -4511.0101      6724.9433      48.731617      2.3577398     -151595.03     -149943.68    
    399100   708.46299     -28563.225      6724.9433      48.731617      2.3577398     -151550.33     -149873.57    
    399200   722.01003      74505.599      6724.9433      48.731617      2.3577398     -151485.69     -149776.86    
    399300   714.39492      2758.4538      6724.9433      48.731617      2.3577398     -151474.9      -149784.1     
    399400   689.52999      38704.122      6724.9433      48.731617      2.3577398     -151523.68     -149891.72    
    399500   676.78249     -6722.3649      6724.9433      48.731617      2.3577398     -151562.31     -149960.52    
    399600   685.1681       2298.0262      6724.9433      48.731617      2.3577398     -151560.22     -149938.59    
    399700   717.62648      8266.6096      6724.9433      48.731617      2.3577398     -151594.16     -149895.71    
    399800   702.6298       27831.87       6724.9433      48.731617      2.3577398     -151532.25     -149869.29    
    399900   716.5627      -25690.755      6724.9433      48.731617      2.3577398     -151539.83     -149843.89    
    400000   707.0009      -17943.605      6724.9433      48.731617      2.3577398     -151555.95     -149882.65    
    400011   700.33422      28592.615      6724.9433      48.731617      2.3577398     -151549.81     -149892.28    
Loop time of 15333.2 on 64 procs for 400000 steps with 795 atoms

Performance: 0.563 ns/day, 42.592 hours/ns, 26.087 timesteps/s
99.6% CPU use with 64 MPI tasks x 1 OpenMP threads

MPI task timing breakdown:
Section |  min time  |  avg time  |  max time  |%varavg| %total
---------------------------------------------------------------
Pair    | 8525.7     | 11046      | 13767      |1464.4 | 72.04
Neigh   | 86.958     | 111.36     | 141.29     | 141.6 |  0.73
Comm    | 253.74     | 2749.8     | 5222.4     |2749.0 | 17.93
Output  | 0.51503    | 0.62955    | 0.89499    |   9.1 |  0.00
Modify  | 1167.6     | 1422.5     | 2445.6     | 669.8 |  9.28
Other   |            | 2.957      |            |       |  0.02

Nlocal:        12.4219 ave          16 max           7 min
Histogram: 1 1 3 7 8 12 11 8 12 1
Nghost:        2180.61 ave        2465 max        1933 min
Histogram: 10 6 1 4 16 10 1 4 7 5
Neighs:        6872.78 ave        9082 max        3397 min
Histogram: 3 3 5 4 10 6 4 10 6 13

Total # of neighbors = 439858
Ave neighs/atom = 553.2805
Neighbor list builds = 10366
Dangerous builds = 0

write_data graphene_single_layer_ReaxFF_750_C_temp_700K.data ### MODIFY FILE NAME ###
System init for write_data ...
Total wall time: 4:15:35
