
# System definition
read_data graphene_single_layer_x-45_y-45_795_C.data ### MODIFY FILE NAME ###
Reading data file ...
  orthogonal box = (-1.4464652 -1.4423034 -1.42) to (47.285152 47.149102 1.42)
  8 by 8 by 1 MPI processor grid
  reading atoms ...
  795 atoms
  reading velocities ...
  795 velocities
  read_data CPU = 0.051 seconds

pair_style reax/c NULL
pair_coeff * * ffield.reax.cho C
Reading potential file ffield.reax.cho with DATE: 2011-02-18
fix qeq_reax all qeq/reax 1 0.0 10.0 1.0e-6 reax/c


# Minimization
timestep 0.25
min_style cg
thermo 100
thermo_style custom step temp press vol lx density pe etotal
dump 2 all custom 1000 graphene_single_layer_ReaxFF_795_C_temp_1000K.lammpstrj id type x y z ### MODIFY FILE NAME ###
minimize 1.0e-6 1.0e-6 100 1000

CITE-CITE-CITE-CITE-CITE-CITE-CITE-CITE-CITE-CITE-CITE-CITE-CITE

Your simulation uses code contributions which should be cited:

- pair reaxff command:

@Article{Aktulga12,
 author = {H. M. Aktulga, J. C. Fogarty, S. A. Pandit, A. Y. Grama},
 title = {Parallel reactive molecular dynamics: Numerical methods and algorithmic techniques},
 journal = {Parallel Computing},
 year =    2012,
 volume =  38,
 pages =   {245--259}
}

- fix qeq/reaxff command:

@Article{Aktulga12,
 author = {H. M. Aktulga, J. C. Fogarty, S. A. Pandit, A. Y. Grama},
 title = {Parallel reactive molecular dynamics: Numerical methods and algorithmic techniques},
 journal = {Parallel Computing},
 year =    2012,
 volume =  38,
 pages =   {245--259}
}

CITE-CITE-CITE-CITE-CITE-CITE-CITE-CITE-CITE-CITE-CITE-CITE-CITE

WARNING: Using 'neigh_modify every 1 delay 0 check yes' setting during minimization (src/min.cpp:187)
Neighbor list info ...
  update every 1 steps, delay 0 steps, check yes
  max neighbors/atom: 10000, page size: 100000
  master list distance cutoff = 10.4
  ghost atom cutoff = 10.4
  binsize = 5.2, bins = 10 10 1
  2 neighbor lists, perpetual/occasional/extra = 2 0 0
  (1) pair reax/c, perpetual
      attributes: half, newton off, ghost
      pair build: half/bin/newtoff/ghost
      stencil: full/ghost/bin/3d
      bin: standard
  (2) fix qeq/reax, perpetual, copy from (1)
      attributes: half, newton off
      pair build: copy
      stencil: none
      bin: none
Per MPI rank memory allocation (min/avg/max) = 36.37 | 41.41 | 47.38 Mbytes
   Step          Temp          Press          Volume           Lx          Density         PotEng         TotEng    
         0   923            34054.396      6724.9433      48.731617      2.3577398     -151766.67     -149582.14    
        11   923            35396.792      6724.9433      48.731617      2.3577398     -151904.55     -149720.03    
Loop time of 2.08307 on 64 procs for 11 steps with 795 atoms

99.3% CPU use with 64 MPI tasks x 1 OpenMP threads

Minimization stats:
  Stopping criterion = energy tolerance
  Energy initial, next-to-last, final = 
     -151766.666472543  -151904.508881892  -151904.547898656
  Force two-norm initial, final = 279.94165 356.09863
  Force max component initial, final = 137.99181 55.448555
  Final line search alpha, max atom move = 0.00038853166 0.021543519
  Iterations, force evaluations = 11 32

MPI task timing breakdown:
Section |  min time  |  avg time  |  max time  |%varavg| %total
---------------------------------------------------------------
Pair    | 0.92997    | 1.2565     | 1.6917     |  17.4 | 60.32
Neigh   | 0.013104   | 0.018873   | 0.024521   |   1.9 |  0.91
Comm    | 0.064175   | 0.42582    | 0.74648    |  25.3 | 20.44
Output  | 0          | 0          | 0          |   0.0 |  0.00
Modify  | 0.29615    | 0.30172    | 0.30772    |   0.5 | 14.48
Other   |            | 0.08017    |            |       |  3.85

Nlocal:        12.4219 ave          15 max          10 min
Histogram: 15 0 0 0 22 0 12 0 0 15
Nghost:        2194.12 ave        2559 max        1869 min
Histogram: 2 8 9 4 12 12 5 4 6 2
Neighs:        6807.34 ave        8856 max        4476 min
Histogram: 4 8 3 7 7 13 5 2 0 15

Total # of neighbors = 435670
Ave neighs/atom = 548.01258
Neighbor list builds = 1
Dangerous builds = 0

fix 1 all nvt temp 1000.0 1000.0 $(100.0*dt)  ### MODIFY INIT TEMP, FINAL TEMP ###
fix 1 all nvt temp 1000.0 1000.0 25  
run 400000
Per MPI rank memory allocation (min/avg/max) = 35.25 | 40.29 | 46.26 Mbytes
   Step          Temp          Press          Volume           Lx          Density         PotEng         TotEng    
        11   923            35396.792      6724.9433      48.731617      2.3577398     -151904.55     -149720.03    
       100   600.48734      29868.442      6724.9433      48.731617      2.3577398     -150945.16     -149523.95    
       200   601.57415      180545.62      6724.9433      48.731617      2.3577398     -150564.93     -149141.15    
       300   864.06961     -14218.078      6724.9433      48.731617      2.3577398     -150723.59     -148678.54    
       400   989.51339     -62065.516      6724.9433      48.731617      2.3577398     -150545.27     -148203.33    
       500   1043.2581      24864.096      6724.9433      48.731617      2.3577398     -150331.89     -147862.75    
       600   1002.5144      110351.89      6724.9433      48.731617      2.3577398     -150121.51     -147748.79    
       700   1047.1156      10552.488      6724.9433      48.731617      2.3577398     -150297.61     -147819.33    
       800   978.20713      53957.822      6724.9433      48.731617      2.3577398     -150360.96     -148045.77    
       900   980.67974      70859.417      6724.9433      48.731617      2.3577398     -150581.15     -148260.12    
      1000   946.18057      28594.193      6724.9433      48.731617      2.3577398     -150549.4      -148310.02    
      1100   1008.1984      25624.344      6724.9433      48.731617      2.3577398     -150528.89     -148142.72    
      1200   1046.0761      47825.997      6724.9433      48.731617      2.3577398     -150445.58     -147969.76    
      1300   1051.2992      53903.069      6724.9433      48.731617      2.3577398     -150461.37     -147973.2     
      1400   958.49776      31883.095      6724.9433      48.731617      2.3577398     -150419.78     -148151.24    
      1500   984.17055      24129.909      6724.9433      48.731617      2.3577398     -150608.93     -148279.63    
      1600   968.42088     -17188.868      6724.9433      48.731617      2.3577398     -150627.55     -148335.53    
      1700   981.77929      62866.139      6724.9433      48.731617      2.3577398     -150610.01     -148286.37    
      1800   1023.7143      75608.325      6724.9433      48.731617      2.3577398     -150609.98     -148187.09    
      1900   1002.3841     -46187.459      6724.9433      48.731617      2.3577398     -150513.99     -148141.59    
      2000   975.90418      22289.301      6724.9433      48.731617      2.3577398     -150473.58     -148163.85    
      2100   978.916        12110.27       6724.9433      48.731617      2.3577398     -150529.43     -148212.57    
      2200   940.68845      36169.897      6724.9433      48.731617      2.3577398     -150505.8      -148279.41    
      2300   1016.7851      68721.828      6724.9433      48.731617      2.3577398     -150668.47     -148261.98    
      2400   1025.6446      9763.8159      6724.9433      48.731617      2.3577398     -150645.22     -148217.76    
      2500   1014.0879     -8551.2971      6724.9433      48.731617      2.3577398     -150581.78     -148181.68    
      2600   1015.5383      56135.807      6724.9433      48.731617      2.3577398     -150571.33     -148167.79    
      2700   1007.9391      53129.33       6724.9433      48.731617      2.3577398     -150529.85     -148144.29    
      2800   1071.8328      28971.007      6724.9433      48.731617      2.3577398     -150659.93     -148123.16    
      2900   962.06136      19149.626      6724.9433      48.731617      2.3577398     -150522.1      -148245.13    
      3000   972.32056      43325.892      6724.9433      48.731617      2.3577398     -150631.26     -148330       
      3100   949.04511      21830.406      6724.9433      48.731617      2.3577398     -150597.82     -148351.65    
      3200   992.74652      28041.899      6724.9433      48.731617      2.3577398     -150550.54     -148200.95    
      3300   1009.6224      36750.774      6724.9433      48.731617      2.3577398     -150490.97     -148101.43    
      3400   960.36759      78870.227      6724.9433      48.731617      2.3577398     -150403.78     -148130.82    
      3500   998.95514      61920.116      6724.9433      48.731617      2.3577398     -150573.83     -148209.54    
      3600   934.7388       33556.465      6724.9433      48.731617      2.3577398     -150564.05     -148351.74    
      3700   968.46311     -58062.913      6724.9433      48.731617      2.3577398     -150663.24     -148371.12    
      3800   998.69119      45550.577      6724.9433      48.731617      2.3577398     -150542.6      -148178.94    
      3900   1008.7755     -13266.158      6724.9433      48.731617      2.3577398     -150491.07     -148103.54    
      4000   1008.8675      32549.782      6724.9433      48.731617      2.3577398     -150560.67     -148172.92    
      4100   983.51084      80164.201      6724.9433      48.731617      2.3577398     -150589.19     -148261.45    
      4200   985.0392       53587.017      6724.9433      48.731617      2.3577398     -150608        -148276.64    
      4300   963.66261      4635.9847      6724.9433      48.731617      2.3577398     -150522.29     -148241.52    
      4400   1054.1027      53115.573      6724.9433      48.731617      2.3577398     -150517.39     -148022.57    
      4500   1051.9939      13213.409      6724.9433      48.731617      2.3577398     -150568.1      -148078.28    
      4600   1004.7673      62363.189      6724.9433      48.731617      2.3577398     -150577.92     -148199.88    
      4700   1006.4538      38478.283      6724.9433      48.731617      2.3577398     -150631.09     -148249.05    
      4800   978.49308     -5724.4779      6724.9433      48.731617      2.3577398     -150586.74     -148270.88    
      4900   977.725        13411.036      6724.9433      48.731617      2.3577398     -150607.96     -148293.91    
      5000   997.53683      74285.482      6724.9433      48.731617      2.3577398     -150651.24     -148290.31    
      5100   960.93716     -7957.794       6724.9433      48.731617      2.3577398     -150488.56     -148214.25    
      5200   998.1454       22645.835      6724.9433      48.731617      2.3577398     -150454.54     -148092.17    
      5300   997.39611     -3566.6304      6724.9433      48.731617      2.3577398     -150433.75     -148073.15    
      5400   982.60551      40615.94       6724.9433      48.731617      2.3577398     -150511.56     -148185.97    
      5500   1014.4899      22348.457      6724.9433      48.731617      2.3577398     -150747.53     -148346.47    
      5600   987.25977      64592.058      6724.9433      48.731617      2.3577398     -150640.97     -148304.36    
      5700   985.9322       48519.245      6724.9433      48.731617      2.3577398     -150537.05     -148203.58    
      5800   1026.7187      42000.783      6724.9433      48.731617      2.3577398     -150588.22     -148158.22    
      5900   1001.4271      47196.694      6724.9433      48.731617      2.3577398     -150555.33     -148185.19    
      6000   1000.1938      58348.095      6724.9433      48.731617      2.3577398     -150691.02     -148323.8     
      6100   970.59526      40608          6724.9433      48.731617      2.3577398     -150710.76     -148413.59    
      6200   982.93324     -17802.045      6724.9433      48.731617      2.3577398     -150675.57     -148349.2     
      6300   980.11201      4638.0519      6724.9433      48.731617      2.3577398     -150525.39     -148205.7     
      6400   956.21469      21829.157      6724.9433      48.731617      2.3577398     -150429.07     -148165.93    
      6500   1026.549       27224.371      6724.9433      48.731617      2.3577398     -150572.82     -148143.23    
      6600   988.28029      4590.7751      6724.9433      48.731617      2.3577398     -150499.63     -148160.61    
      6700   940.19731     -23130.316      6724.9433      48.731617      2.3577398     -150543.43     -148318.2     
      6800   1002.0147      45378.706      6724.9433      48.731617      2.3577398     -150726.54     -148355       
      6900   961.069        30981.391      6724.9433      48.731617      2.3577398     -150539.28     -148264.65    
      7000   978.21993      12017.901      6724.9433      48.731617      2.3577398     -150436.6      -148121.38    
      7100   1023.6889      22632.802      6724.9433      48.731617      2.3577398     -150540.6      -148117.77    
      7200   1009.8781     -20806.274      6724.9433      48.731617      2.3577398     -150637.73     -148247.59    
      7300   984.76646      20827.005      6724.9433      48.731617      2.3577398     -150651.16     -148320.45    
      7400   994.51164      56136.558      6724.9433      48.731617      2.3577398     -150621.88     -148268.11    
      7500   997.51928      5378.9265      6724.9433      48.731617      2.3577398     -150525.79     -148164.89    
      7600   1047.7095      17890.53       6724.9433      48.731617      2.3577398     -150570.8      -148091.12    
      7700   1034.096       14719.305      6724.9433      48.731617      2.3577398     -150582.3      -148134.84    
      7800   1015.4176     -18221.299      6724.9433      48.731617      2.3577398     -150651.65     -148248.4     
      7900   993.49287      12226.223      6724.9433      48.731617      2.3577398     -150678.99     -148327.62    
      8000   1000.9544      8967.4982      6724.9433      48.731617      2.3577398     -150715.47     -148346.45    
      8100   1040.794       6393.9655      6724.9433      48.731617      2.3577398     -150694.97     -148231.66    
      8200   997.69111      53576.47       6724.9433      48.731617      2.3577398     -150415.44     -148054.14    
      8300   1050.5188      75828.419      6724.9433      48.731617      2.3577398     -150562.54     -148076.21    
      8400   994.95014     -48021.303      6724.9433      48.731617      2.3577398     -150571.42     -148216.61    
      8500   971.47615     -8100.6587      6724.9433      48.731617      2.3577398     -150606.78     -148307.52    
      8600   993.12325      21265.521      6724.9433      48.731617      2.3577398     -150668.1      -148317.61    
      8700   1019.2649      15392.181      6724.9433      48.731617      2.3577398     -150640.36     -148228       
      8800   1018.0276      37543.645      6724.9433      48.731617      2.3577398     -150502.05     -148092.62    
      8900   1052.1228      54987.152      6724.9433      48.731617      2.3577398     -150397.84     -147907.71    
      9000   1082.6499     -31872.361      6724.9433      48.731617      2.3577398     -150419.47     -147857.1     
      9100   1053.1442      26592.532      6724.9433      48.731617      2.3577398     -150483.88     -147991.34    
      9200   993.41258      59194.353      6724.9433      48.731617      2.3577398     -150500.16     -148148.99    
      9300   975.99401      19539.077      6724.9433      48.731617      2.3577398     -150553.61     -148243.66    
      9400   1034.4708      2091.1526      6724.9433      48.731617      2.3577398     -150714.82     -148266.48    
      9500   962.56104      53023.25       6724.9433      48.731617      2.3577398     -150537.06     -148258.91    
      9600   1005.0723      46084.832      6724.9433      48.731617      2.3577398     -150485.81     -148107.05    
      9700   1016.1191     -15027.984      6724.9433      48.731617      2.3577398     -150473.25     -148068.34    
      9800   991.69606      18595.614      6724.9433      48.731617      2.3577398     -150541.8      -148194.69    
      9900   968.7843       79804.549      6724.9433      48.731617      2.3577398     -150581.57     -148288.69    
     10000   988.82553      65401.737      6724.9433      48.731617      2.3577398     -150581.4      -148241.08    
     10100   1006.8961     -36531.935      6724.9433      48.731617      2.3577398     -150538.56     -148155.48    
     10200   1025.1568      2039.2153      6724.9433      48.731617      2.3577398     -150588.7      -148162.4     
     10300   983.32874      40251.83       6724.9433      48.731617      2.3577398     -150652.2      -148324.89    
     10400   940.20959      45181.35       6724.9433      48.731617      2.3577398     -150627.26     -148402.01    
     10500   945.27008      50928.78       6724.9433      48.731617      2.3577398     -150565.96     -148328.73    
     10600   979.03513      35054.879      6724.9433      48.731617      2.3577398     -150541.4      -148224.25    
     10700   1004.9852      14446.505      6724.9433      48.731617      2.3577398     -150548.38     -148169.81    
     10800   1010.4413      26532.89       6724.9433      48.731617      2.3577398     -150548.24     -148156.77    
     10900   1026.4792      36546.166      6724.9433      48.731617      2.3577398     -150686.23     -148256.79    
     11000   981.20827      108892.21      6724.9433      48.731617      2.3577398     -150718.38     -148396.09    
     11100   1002.3385      12242.784      6724.9433      48.731617      2.3577398     -150734.78     -148362.48    
     11200   967.25606     -83529.737      6724.9433      48.731617      2.3577398     -150552.76     -148263.49    
     11300   987.95466      44770.206      6724.9433      48.731617      2.3577398     -150506.2      -148167.94    
     11400   1008.3448      61417.342      6724.9433      48.731617      2.3577398     -150561.37     -148174.85    
     11500   1028.6688      64273.717      6724.9433      48.731617      2.3577398     -150672.48     -148237.87    
     11600   961.69584      14388.366      6724.9433      48.731617      2.3577398     -150624.09     -148347.98    
     11700   973.97861      7702.2468      6724.9433      48.731617      2.3577398     -150684.5      -148379.33    
     11800   1034.427       75688.8        6724.9433      48.731617      2.3577398     -150685.88     -148237.64    
     11900   980.05483     -18389.882      6724.9433      48.731617      2.3577398     -150453.1      -148133.54    
     12000   999.26145      105157.86      6724.9433      48.731617      2.3577398     -150505.97     -148140.95    
     12100   1034.4435      19441.37       6724.9433      48.731617      2.3577398     -150707.68     -148259.4     
     12200   1019.5426      24931.814      6724.9433      48.731617      2.3577398     -150732.72     -148319.71    
     12300   964.98259      30916.466      6724.9433      48.731617      2.3577398     -150590.1      -148306.21    
     12400   998.73107      34667.755      6724.9433      48.731617      2.3577398     -150635.06     -148271.3     
     12500   970.23597      63776.489      6724.9433      48.731617      2.3577398     -150527.66     -148231.34    
     12600   1019.5715      21370.533      6724.9433      48.731617      2.3577398     -150583.3      -148170.21    
     12700   1007.941       34337.307      6724.9433      48.731617      2.3577398     -150572.37     -148186.81    
     12800   989.92058      80576.057      6724.9433      48.731617      2.3577398     -150622.12     -148279.21    
     12900   974.91645      32531.977      6724.9433      48.731617      2.3577398     -150724.99     -148417.59    
     13000   989.87315      14074.079      6724.9433      48.731617      2.3577398     -150707.15     -148364.36    
     13100   1013.8762      20289.401      6724.9433      48.731617      2.3577398     -150639.08     -148239.47    
     13200   1015.3746      33895.519      6724.9433      48.731617      2.3577398     -150630.21     -148227.06    
     13300   1004.8723      78887.986      6724.9433      48.731617      2.3577398     -150613.5      -148235.2     
     13400   962.0653       34857.698      6724.9433      48.731617      2.3577398     -150549.25     -148272.27    
     13500   969.80003      1571.1567      6724.9433      48.731617      2.3577398     -150617.59     -148322.3     
     13600   952.80441     -33084.743      6724.9433      48.731617      2.3577398     -150645.53     -148390.46    
     13700   999.96899      57511.698      6724.9433      48.731617      2.3577398     -150670.41     -148303.72    
     13800   1014.0784      58224.843      6724.9433      48.731617      2.3577398     -150565.33     -148165.24    
     13900   1006.9529      1597.6336      6724.9433      48.731617      2.3577398     -150517.12     -148133.9     
     14000   1030.1646      42847.907      6724.9433      48.731617      2.3577398     -150619.68     -148181.52    
     14100   992.14558      129623.64      6724.9433      48.731617      2.3577398     -150680        -148331.82    
     14200   945.78956     -39551.944      6724.9433      48.731617      2.3577398     -150668.45     -148429.99    
     14300   979.52644      105249.29      6724.9433      48.731617      2.3577398     -150679.24     -148360.94    
     14400   996.73306     -9436.1576      6724.9433      48.731617      2.3577398     -150601.8      -148242.77    
     14500   1011.324       71594.281      6724.9433      48.731617      2.3577398     -150546.62     -148153.06    
     14600   1000.9212      54153.228      6724.9433      48.731617      2.3577398     -150492.01     -148123.07    
     14700   995.39667      35576.312      6724.9433      48.731617      2.3577398     -150531.46     -148175.59    
     14800   983.46139      40653.439      6724.9433      48.731617      2.3577398     -150711.85     -148384.23    
     14900   965.20012      48397.238      6724.9433      48.731617      2.3577398     -150676.86     -148392.46    
     15000   965.32373      62098.544      6724.9433      48.731617      2.3577398     -150577.12     -148292.43    
     15100   1008.5452     -4357.5725      6724.9433      48.731617      2.3577398     -150564.36     -148177.38    
     15200   1039.6246      11565.024      6724.9433      48.731617      2.3577398     -150621.11     -148160.57    
     15300   1014.3175      26317.233      6724.9433      48.731617      2.3577398     -150620.42     -148219.77    
     15400   986.68264      40656.895      6724.9433      48.731617      2.3577398     -150594.11     -148258.87    
     15500   984.74474      59364.076      6724.9433      48.731617      2.3577398     -150584.74     -148254.08    
     15600   1047.5719      21192.797      6724.9433      48.731617      2.3577398     -150728.99     -148249.63    
     15700   997.24938      11876.239      6724.9433      48.731617      2.3577398     -150617.94     -148257.69    
     15800   998.34246      7934.3194      6724.9433      48.731617      2.3577398     -150643.87     -148281.03    
     15900   977.30967     -8753.9854      6724.9433      48.731617      2.3577398     -150619.47     -148306.41    
     16000   993.84309      18618.251      6724.9433      48.731617      2.3577398     -150639.11     -148286.92    
     16100   983.23385      38947.094      6724.9433      48.731617      2.3577398     -150548.43     -148221.35    
     16200   1014.1931      68722.012      6724.9433      48.731617      2.3577398     -150531.99     -148131.64    
     16300   1109.559      -20088.527      6724.9433      48.731617      2.3577398     -150666.54     -148040.48    
     16400   997.68244      10756.398      6724.9433      48.731617      2.3577398     -150564.18     -148202.91    
     16500   992.51151      86585.472      6724.9433      48.731617      2.3577398     -150631.66     -148282.62    
     16600   963.87114      25846.481      6724.9433      48.731617      2.3577398     -150565.08     -148283.82    
     16700   992.27614      18894.178      6724.9433      48.731617      2.3577398     -150560.32     -148211.84    
     16800   1044.6636      2488.1675      6724.9433      48.731617      2.3577398     -150571.29     -148098.82    
     16900   1029.2495     -11833.226      6724.9433      48.731617      2.3577398     -150490.92     -148054.93    
     17000   992.62969      30639.954      6724.9433      48.731617      2.3577398     -150573.9      -148224.58    
     17100   977.76054      43761.006      6724.9433      48.731617      2.3577398     -150629.15     -148315.03    
     17200   966.03883     -8834.0941      6724.9433      48.731617      2.3577398     -150594.63     -148308.24    
     17300   1006.1853      30521.551      6724.9433      48.731617      2.3577398     -150621.4      -148240       
     17400   1046.8589      43058.718      6724.9433      48.731617      2.3577398     -150547.37     -148069.71    
     17500   1039.5882      57453.233      6724.9433      48.731617      2.3577398     -150505.84     -148045.38    
     17600   1052.0893     -6288.1654      6724.9433      48.731617      2.3577398     -150620.46     -148130.41    
     17700   976.13415      2221.4461      6724.9433      48.731617      2.3577398     -150536.36     -148226.08    
     17800   1024.9193     -24581.154      6724.9433      48.731617      2.3577398     -150655.91     -148230.16    
     17900   979.79411      46944.538      6724.9433      48.731617      2.3577398     -150555.24     -148236.3     
     18000   1010.9571      36445.656      6724.9433      48.731617      2.3577398     -150599.59     -148206.89    
     18100   1005.8928     -7397.3221      6724.9433      48.731617      2.3577398     -150585.85     -148205.14    
     18200   992.11092      16643.008      6724.9433      48.731617      2.3577398     -150593.72     -148245.63    
     18300   1001.0518      76948.039      6724.9433      48.731617      2.3577398     -150665.02     -148295.76    
     18400   963.62526      15103.951      6724.9433      48.731617      2.3577398     -150610.48     -148329.81    
     18500   1011.3424      30442.177      6724.9433      48.731617      2.3577398     -150691.11     -148297.5     
     18600   1014.4104      22976.069      6724.9433      48.731617      2.3577398     -150576.56     -148175.69    
     18700   1049.0005      64371.673      6724.9433      48.731617      2.3577398     -150558.31     -148075.58    
     18800   998.90956      45730.518      6724.9433      48.731617      2.3577398     -150494.68     -148130.49    
     18900   970.05393      43583.322      6724.9433      48.731617      2.3577398     -150579.43     -148283.54    
     19000   983.49076     -38278.392      6724.9433      48.731617      2.3577398     -150630.4      -148302.71    
     19100   1007.8167      28977.145      6724.9433      48.731617      2.3577398     -150651.78     -148266.52    
     19200   987.87151      14255.946      6724.9433      48.731617      2.3577398     -150570.75     -148232.69    
     19300   1016.1705      18730.879      6724.9433      48.731617      2.3577398     -150643.8      -148238.77    
     19400   1009.692       13116.797      6724.9433      48.731617      2.3577398     -150684.56     -148294.86    
     19500   1014.8385      18165.941      6724.9433      48.731617      2.3577398     -150763.56     -148361.68    
     19600   977.97496      21993.829      6724.9433      48.731617      2.3577398     -150682.2      -148367.57    
     19700   1014.1723      89537.419      6724.9433      48.731617      2.3577398     -150611.95     -148211.65    
     19800   1039.6481      52112.504      6724.9433      48.731617      2.3577398     -150596.57     -148135.97    
     19900   1029.3102     -20747.074      6724.9433      48.731617      2.3577398     -150636.18     -148200.04    
     20000   996.59377      36595.1        6724.9433      48.731617      2.3577398     -150649.08     -148290.38    
     20100   954.63053      12089.837      6724.9433      48.731617      2.3577398     -150614.09     -148354.7     
     20200   1000.3799      83640.947      6724.9433      48.731617      2.3577398     -150725.46     -148357.8     
     20300   999.03307      52914.752      6724.9433      48.731617      2.3577398     -150607.42     -148242.95    
     20400   1017.2306      5900.4006      6724.9433      48.731617      2.3577398     -150530.83     -148123.29    
     20500   1021.0384     -131.15757      6724.9433      48.731617      2.3577398     -150552.49     -148135.93    
     20600   957.87934      62225.908      6724.9433      48.731617      2.3577398     -150558.97     -148291.89    
     20700   1012.2618      50656.946      6724.9433      48.731617      2.3577398     -150736.53     -148340.75    
     20800   1011.0065     -9774.3227      6724.9433      48.731617      2.3577398     -150681.29     -148288.47    
     20900   1026.6692      18263.252      6724.9433      48.731617      2.3577398     -150641.3      -148211.42    
     21000   1016.0062      33114.063      6724.9433      48.731617      2.3577398     -150565.97     -148161.32    
     21100   1037.0991      27386.726      6724.9433      48.731617      2.3577398     -150628.23     -148173.66    
     21200   1030.9522      63022.096      6724.9433      48.731617      2.3577398     -150644.7      -148204.68    
     21300   977.32038      40583.402      6724.9433      48.731617      2.3577398     -150532.03     -148218.95    
     21400   991.17151     -27586.851      6724.9433      48.731617      2.3577398     -150540.34     -148194.47    
     21500   988.34363      20924.286      6724.9433      48.731617      2.3577398     -150497.21     -148158.03    
     21600   1001.0788      10954.878      6724.9433      48.731617      2.3577398     -150474.56     -148105.25    
     21700   1010.4454      30609.868      6724.9433      48.731617      2.3577398     -150489.67     -148098.18    
     21800   995.40431      33693.038      6724.9433      48.731617      2.3577398     -150599.12     -148243.23    
     21900   955.71445      43018.385      6724.9433      48.731617      2.3577398     -150580.88     -148318.93    
     22000   1028.2862      36167.968      6724.9433      48.731617      2.3577398     -150709.1      -148275.39    
     22100   1018.7345      8787.9505      6724.9433      48.731617      2.3577398     -150622.4      -148211.29    
     22200   1017.9994      8268.7452      6724.9433      48.731617      2.3577398     -150465.65     -148056.28    
     22300   1032.4571      1511.4195      6724.9433      48.731617      2.3577398     -150413.61     -147970.03    
     22400   1007.705       22181.244      6724.9433      48.731617      2.3577398     -150511.72     -148126.72    
     22500   1002.8997      19572.929      6724.9433      48.731617      2.3577398     -150591.07     -148217.44    
     22600   1003.3444      79041.847      6724.9433      48.731617      2.3577398     -150644.15     -148269.47    
     22700   987.38456      44679.438      6724.9433      48.731617      2.3577398     -150690.54     -148353.63    
     22800   1007.0671     -1050.5974      6724.9433      48.731617      2.3577398     -150822.41     -148438.92    
     22900   973.25687      46761.2        6724.9433      48.731617      2.3577398     -150744.16     -148440.69    
     23000   1041.9612      24228.918      6724.9433      48.731617      2.3577398     -150729.65     -148263.58    
     23100   1015.2794      31506.62       6724.9433      48.731617      2.3577398     -150590.93     -148188.01    
     23200   1013.1441      70036.221      6724.9433      48.731617      2.3577398     -150577.58     -148179.71    
     23300   983.05733      29340.764      6724.9433      48.731617      2.3577398     -150615.57     -148288.91    
     23400   994.13262     -4253.3055      6724.9433      48.731617      2.3577398     -150763.2      -148410.32    
     23500   977.1234       4863.6216      6724.9433      48.731617      2.3577398     -150698.13     -148385.51    
     23600   1008.9081     -877.66109      6724.9433      48.731617      2.3577398     -150640.21     -148252.37    
     23700   1016.5835      8326.2128      6724.9433      48.731617      2.3577398     -150619.36     -148213.35    
     23800   1014.6755      90653.207      6724.9433      48.731617      2.3577398     -150657.9      -148256.41    
     23900   982.56187      31720.774      6724.9433      48.731617      2.3577398     -150662.15     -148336.66    
     24000   967.70705      34207.579      6724.9433      48.731617      2.3577398     -150688.46     -148398.12    
     24100   973.31321      34091.63       6724.9433      48.731617      2.3577398     -150736.64     -148433.04    
     24200   1007.054      -13667.285      6724.9433      48.731617      2.3577398     -150670.98     -148287.52    
     24300   996.90756      98087.2        6724.9433      48.731617      2.3577398     -150518.47     -148159.02    
     24400   1024.0846      13198.933      6724.9433      48.731617      2.3577398     -150589.47     -148165.71    
     24500   1002.8373      55753.543      6724.9433      48.731617      2.3577398     -150638.91     -148265.44    
     24600   964.4275      -32542.392      6724.9433      48.731617      2.3577398     -150668.53     -148385.96    
     24700   992.6886      -3331.3236      6724.9433      48.731617      2.3577398     -150704.49     -148355.03    
     24800   1008.1812      30796.041      6724.9433      48.731617      2.3577398     -150686.31     -148300.19    
     24900   1028.8146      45133.085      6724.9433      48.731617      2.3577398     -150711.39     -148276.43    
     25000   1003.8681      49287.05       6724.9433      48.731617      2.3577398     -150649.29     -148273.38    
     25100   994.45439     -24343.692      6724.9433      48.731617      2.3577398     -150532.29     -148178.66    
     25200   1043.9212      45041.71       6724.9433      48.731617      2.3577398     -150532.88     -148062.16    
     25300   1045.8753      31644.813      6724.9433      48.731617      2.3577398     -150569.41     -148094.07    
     25400   990.59991      58818.391      6724.9433      48.731617      2.3577398     -150603.87     -148259.35    
     25500   1002.5462      92217.113      6724.9433      48.731617      2.3577398     -150671.12     -148298.34    
     25600   1021.7247      11947.183      6724.9433      48.731617      2.3577398     -150705.53     -148287.35    
     25700   1013.6918      49199.099      6724.9433      48.731617      2.3577398     -150641.01     -148241.84    
     25800   1035.0485      34854.052      6724.9433      48.731617      2.3577398     -150520.77     -148071.06    
     25900   1069.2554      67091.209      6724.9433      48.731617      2.3577398     -150545        -148014.32    
     26000   1034.1217      9704.4463      6724.9433      48.731617      2.3577398     -150593.58     -148146.06    
     26100   983.66153      8038.5974      6724.9433      48.731617      2.3577398     -150563.02     -148234.92    
     26200   1039.3428      13880.782      6724.9433      48.731617      2.3577398     -150722.43     -148262.55    
     26300   958.81485      36128.224      6724.9433      48.731617      2.3577398     -150623.8      -148354.51    
     26400   955.38972      43295.941      6724.9433      48.731617      2.3577398     -150679.38     -148418.2     
     26500   987.34989      16706.744      6724.9433      48.731617      2.3577398     -150634.14     -148297.31    
     26600   1004.2378     -10267.326      6724.9433      48.731617      2.3577398     -150527.07     -148150.28    
     26700   989.80743      59026.008      6724.9433      48.731617      2.3577398     -150540.62     -148197.98    
     26800   994.57289      13680.159      6724.9433      48.731617      2.3577398     -150644.7      -148290.78    
     26900   969.28958      44218.76       6724.9433      48.731617      2.3577398     -150630.03     -148335.96    
     27000   1016.0916      10139.688      6724.9433      48.731617      2.3577398     -150697.4      -148292.56    
     27100   1040.7747     -9400.9317      6724.9433      48.731617      2.3577398     -150658.02     -148194.75    
     27200   1020.2515      176.62989      6724.9433      48.731617      2.3577398     -150588.56     -148173.87    
     27300   974.79625      27280.362      6724.9433      48.731617      2.3577398     -150577.04     -148269.93    
     27400   946.9665       69173.296      6724.9433      48.731617      2.3577398     -150630.92     -148389.67    
     27500   990.12132      85918.371      6724.9433      48.731617      2.3577398     -150716.58     -148373.2     
     27600   1006.8249     -13192.104      6724.9433      48.731617      2.3577398     -150633.76     -148250.85    
     27700   1053.8847      23201.679      6724.9433      48.731617      2.3577398     -150547.9      -148053.61    
     27800   1046.8403      9736.1861      6724.9433      48.731617      2.3577398     -150535.96     -148058.33    
     27900   1031.6759      48277.362      6724.9433      48.731617      2.3577398     -150635.18     -148193.45    
     28000   1008.9454      36834.153      6724.9433      48.731617      2.3577398     -150694.82     -148306.88    
     28100   991.19729     -14891.017      6724.9433      48.731617      2.3577398     -150725.78     -148379.85    
     28200   976.95616     -33729.486      6724.9433      48.731617      2.3577398     -150689.58     -148377.35    
     28300   1050.6681      48335.864      6724.9433      48.731617      2.3577398     -150695.27     -148208.59    
     28400   986.44671      44418.581      6724.9433      48.731617      2.3577398     -150476.25     -148141.57    
     28500   1005.4066      21511.532      6724.9433      48.731617      2.3577398     -150566.01     -148186.45    
     28600   1037.6402      29830.29       6724.9433      48.731617      2.3577398     -150728.14     -148272.29    
     28700   964.47589      28180.132      6724.9433      48.731617      2.3577398     -150591.19     -148308.51    
     28800   1014.45        45645.492      6724.9433      48.731617      2.3577398     -150699.5      -148298.53    
     28900   1038.1868      74430.325      6724.9433      48.731617      2.3577398     -150730.74     -148273.59    
     29000   1020.0592      22813.98       6724.9433      48.731617      2.3577398     -150696.95     -148282.71    
     29100   1000.3466      17870.396      6724.9433      48.731617      2.3577398     -150694.03     -148326.45    
     29200   1009.3417      30445.919      6724.9433      48.731617      2.3577398     -150769.66     -148380.79    
     29300   979.58994      57895.328      6724.9433      48.731617      2.3577398     -150692.51     -148374.05    
     29400   972.53602      12763.763      6724.9433      48.731617      2.3577398     -150570.95     -148269.18    
     29500   1025.3328     -37288.697      6724.9433      48.731617      2.3577398     -150577.62     -148150.9     
     29600   1068.7965      36817.426      6724.9433      48.731617      2.3577398     -150687.24     -148157.66    
     29700   973.40528      358.53519      6724.9433      48.731617      2.3577398     -150566.71     -148262.89    
     29800   960.96351      22799.98       6724.9433      48.731617      2.3577398     -150665.41     -148391.03    
     29900   949.71183      26455.931      6724.9433      48.731617      2.3577398     -150851.32     -148603.58    
     30000   946.78579     -13824.677      6724.9433      48.731617      2.3577398     -150783.19     -148542.37    
     30100   976.30957      25213.876      6724.9433      48.731617      2.3577398     -150703.72     -148393.03    
     30200   1023.4676      24025.319      6724.9433      48.731617      2.3577398     -150702.42     -148280.12    
     30300   1002.4229      24670.754      6724.9433      48.731617      2.3577398     -150568.78     -148196.29    
     30400   1001.2454      57413.184      6724.9433      48.731617      2.3577398     -150495.03     -148125.32    
     30500   1011.4359      61304.962      6724.9433      48.731617      2.3577398     -150542.61     -148148.78    
     30600   1006.1981      35824.799      6724.9433      48.731617      2.3577398     -150718.07     -148336.64    
     30700   1002.7686     -13261.653      6724.9433      48.731617      2.3577398     -150772.71     -148399.39    
     30800   968.77488      41425.452      6724.9433      48.731617      2.3577398     -150661.82     -148368.96    
     30900   1009.9646      14575.849      6724.9433      48.731617      2.3577398     -150625.11     -148234.76    
     31000   1053.0484      23401.285      6724.9433      48.731617      2.3577398     -150652.76     -148160.45    
     31100   1015.7053      2408.4804      6724.9433      48.731617      2.3577398     -150564.31     -148160.37    
     31200   979.0784       42439.176      6724.9433      48.731617      2.3577398     -150629.83     -148312.59    
     31300   987.26095      8938.4258      6724.9433      48.731617      2.3577398     -150740.02     -148403.41    
     31400   1004.0006      67590.66       6724.9433      48.731617      2.3577398     -150798.77     -148422.54    
     31500   991.60828      66284.66       6724.9433      48.731617      2.3577398     -150646.08     -148299.17    
     31600   1022.8801      33448.156      6724.9433      48.731617      2.3577398     -150620.75     -148199.84    
     31700   1006.8322     -17767.527      6724.9433      48.731617      2.3577398     -150627.48     -148244.55    
     31800   995.29116      50152.279      6724.9433      48.731617      2.3577398     -150657.29     -148301.67    
     31900   993.38239      2921.245       6724.9433      48.731617      2.3577398     -150720.19     -148369.09    
     32000   943.7557       32393.377      6724.9433      48.731617      2.3577398     -150707.62     -148473.98    
     32100   975.49297      32440.886      6724.9433      48.731617      2.3577398     -150776.41     -148467.65    
     32200   985.94756      18250.6        6724.9433      48.731617      2.3577398     -150637.94     -148304.44    
     32300   1001.4564      51951.517      6724.9433      48.731617      2.3577398     -150600.88     -148230.67    
     32400   993.16618      14294.272      6724.9433      48.731617      2.3577398     -150563.61     -148213.02    
     32500   1016.0541      34435.253      6724.9433      48.731617      2.3577398     -150613.81     -148209.05    
     32600   988.34423      33363.849      6724.9433      48.731617      2.3577398     -150635.95     -148296.77    
     32700   972.62052      1157.5001      6724.9433      48.731617      2.3577398     -150721.69     -148419.73    
     32800   980.3239       59795.812      6724.9433      48.731617      2.3577398     -150726.31     -148406.12    
     32900   1018.1832      54587.455      6724.9433      48.731617      2.3577398     -150668.48     -148258.69    
     33000   1021.4138      35212.855      6724.9433      48.731617      2.3577398     -150597.85     -148180.4     
     33100   1031.2393      58335.878      6724.9433      48.731617      2.3577398     -150639.75     -148199.06    
     33200   1008.306       9718.8785      6724.9433      48.731617      2.3577398     -150665.9      -148279.48    
     33300   980.19518      29680.273      6724.9433      48.731617      2.3577398     -150708.83     -148388.94    
     33400   978.89394      22603.31       6724.9433      48.731617      2.3577398     -150785.54     -148468.73    
     33500   951.81394      12416.708      6724.9433      48.731617      2.3577398     -150797.59     -148544.87    
     33600   957.67504     -5753.833       6724.9433      48.731617      2.3577398     -150755.41     -148488.82    
     33700   984.32918      3666.7641      6724.9433      48.731617      2.3577398     -150649.64     -148319.96    
     33800   993.29135      16951.672      6724.9433      48.731617      2.3577398     -150598.46     -148247.58    
     33900   990.66224     -1542.8482      6724.9433      48.731617      2.3577398     -150624.92     -148280.26    
     34000   1007.8278      78837.238      6724.9433      48.731617      2.3577398     -150759.55     -148374.26    
     34100   962.64618      15198.973      6724.9433      48.731617      2.3577398     -150745.77     -148467.41    
     34200   996.50154      48230.509      6724.9433      48.731617      2.3577398     -150758.48     -148399.99    
     34300   994.4123       37674.741      6724.9433      48.731617      2.3577398     -150581.1      -148227.56    
     34400   1023.5631      1542.2826      6724.9433      48.731617      2.3577398     -150643.6      -148221.07    
     34500   1001.6751     -18664.637      6724.9433      48.731617      2.3577398     -150665.88     -148295.15    
     34600   1008.7554      70687.131      6724.9433      48.731617      2.3577398     -150741.77     -148354.29    
     34700   945.45932      56522.27       6724.9433      48.731617      2.3577398     -150732.43     -148494.75    
     34800   980.25606     -2842.8618      6724.9433      48.731617      2.3577398     -150790.05     -148470.02    
     34900   1007.526       64240.674      6724.9433      48.731617      2.3577398     -150674.45     -148289.88    
     35000   1017.1895      54856.19       6724.9433      48.731617      2.3577398     -150641.88     -148234.43    
     35100   981.58769      18546.784      6724.9433      48.731617      2.3577398     -150533.88     -148210.69    
     35200   1016.5959      39482.003      6724.9433      48.731617      2.3577398     -150636.42     -148230.38    
     35300   988.18527      72464.196      6724.9433      48.731617      2.3577398     -150685.52     -148346.72    
     35400   976.13153      15929.149      6724.9433      48.731617      2.3577398     -150753.01     -148442.74    
     35500   991.53877      54581.26       6724.9433      48.731617      2.3577398     -150707.81     -148361.07    
     35600   1035.1298     -23514.849      6724.9433      48.731617      2.3577398     -150678.75     -148228.85    
     35700   1017.6397      71426.983      6724.9433      48.731617      2.3577398     -150624.95     -148216.44    
     35800   959.50325      61153.729      6724.9433      48.731617      2.3577398     -150523.31     -148252.39    
     35900   972.62914     -12538.979      6724.9433      48.731617      2.3577398     -150623.08     -148321.1     
     36000   983.30202     -35519.479      6724.9433      48.731617      2.3577398     -150755.7      -148428.45    
     36100   968.46921      32624.387      6724.9433      48.731617      2.3577398     -150813.06     -148520.92    
     36200   930.18778      31674.36       6724.9433      48.731617      2.3577398     -150722.11     -148520.58    
     36300   991.74065      1659.0439      6724.9433      48.731617      2.3577398     -150670.16     -148322.95    
     36400   983.54339      12392.759      6724.9433      48.731617      2.3577398     -150556.1      -148228.28    
     36500   993.67743      47119.766      6724.9433      48.731617      2.3577398     -150514.86     -148163.06    
     36600   986.014        43372.18       6724.9433      48.731617      2.3577398     -150552.99     -148219.33    
     36700   988.08835      21230.989      6724.9433      48.731617      2.3577398     -150701.52     -148362.95    
     36800   972.88273      43305.61       6724.9433      48.731617      2.3577398     -150705.7      -148403.12    
     36900   987.18722      4973.7471      6724.9433      48.731617      2.3577398     -150692.41     -148355.97    
     37000   978.12114      13201.326      6724.9433      48.731617      2.3577398     -150638.13     -148323.15    
     37100   1028.6135      33857.307      6724.9433      48.731617      2.3577398     -150704.77     -148270.29    
     37200   1040.6747      71495.5        6724.9433      48.731617      2.3577398     -150707.96     -148244.93    
     37300   1020.6486      76511.327      6724.9433      48.731617      2.3577398     -150630.48     -148214.85    
     37400   964.65404      52617.04       6724.9433      48.731617      2.3577398     -150332.67     -148049.56    
     37500   1083.8298      122187.13      6724.9433      48.731617      2.3577398     -150542.51     -147977.34    
     37600   1021.0413      47905.928      6724.9433      48.731617      2.3577398     -150559.06     -148142.5     
     37700   1032.3496     -4825.5026      6724.9433      48.731617      2.3577398     -150701.64     -148258.31    
     37800   986.5002       15046.128      6724.9433      48.731617      2.3577398     -150659.26     -148324.44    
     37900   986.6929       19066.474      6724.9433      48.731617      2.3577398     -150629.56     -148294.29    
     38000   952.3972       11868.012      6724.9433      48.731617      2.3577398     -150481.73     -148227.63    
     38100   1019.0131      15400.734      6724.9433      48.731617      2.3577398     -150531.05     -148119.28    
     38200   1010.3296      7262.0336      6724.9433      48.731617      2.3577398     -150534.19     -148142.98    
     38300   1003.2684      32299.117      6724.9433      48.731617      2.3577398     -150691.4      -148316.9     
     38400   952.14944      45091.53       6724.9433      48.731617      2.3577398     -150612.33     -148358.82    
     38500   1003.2065      63791.465      6724.9433      48.731617      2.3577398     -150642.05     -148267.7     
     38600   1005.4311      28604.366      6724.9433      48.731617      2.3577398     -150573.21     -148193.59    
     38700   1022.3121      77036.335      6724.9433      48.731617      2.3577398     -150594.6      -148175.03    
     38800   1021.9307      39222.635      6724.9433      48.731617      2.3577398     -150658.67     -148240.01    
     38900   1010.9573      53652.311      6724.9433      48.731617      2.3577398     -150676.46     -148283.76    
     39000   968.84063      3860.5668      6724.9433      48.731617      2.3577398     -150618.72     -148325.7     
     39100   1019.6748      50900.949      6724.9433      48.731617      2.3577398     -150710.88     -148297.55    
     39200   1046.7283      6990.3767      6724.9433      48.731617      2.3577398     -150601.24     -148123.88    
     39300   1030.2554      30724.696      6724.9433      48.731617      2.3577398     -150549.62     -148111.25    
     39400   990.15777      51214.519      6724.9433      48.731617      2.3577398     -150551.44     -148207.97    
     39500   1011.3499      14426.976      6724.9433      48.731617      2.3577398     -150651.84     -148258.21    
     39600   978.64799      17222.826      6724.9433      48.731617      2.3577398     -150605.03     -148288.81    
     39700   990.15645      29905.715      6724.9433      48.731617      2.3577398     -150646.61     -148303.14    
     39800   976.95306     -619.17281      6724.9433      48.731617      2.3577398     -150709.05     -148396.83    
     39900   956.75157      44798.05       6724.9433      48.731617      2.3577398     -150814.71     -148550.31    
     40000   932.57032      47038.092      6724.9433      48.731617      2.3577398     -150695.67     -148488.49    
     40100   991.77559      28504.467      6724.9433      48.731617      2.3577398     -150704.9      -148357.6     
     40200   1008.7403      32963.405      6724.9433      48.731617      2.3577398     -150659.52     -148272.07    
     40300   1000.5926      19309.908      6724.9433      48.731617      2.3577398     -150585.32     -148217.15    
     40400   995.77277      13351.264      6724.9433      48.731617      2.3577398     -150566.12     -148209.36    
     40500   1019.691       27993.867      6724.9433      48.731617      2.3577398     -150752.41     -148339.04    
     40600   1001.496       87330.53       6724.9433      48.731617      2.3577398     -150792.68     -148422.38    
     40700   974.90633      61117.38       6724.9433      48.731617      2.3577398     -150671.46     -148364.09    
     40800   989.18198      40118.533      6724.9433      48.731617      2.3577398     -150610.94     -148269.78    
     40900   1024.7738      24185.973      6724.9433      48.731617      2.3577398     -150664.47     -148239.07    
     41000   1015.0514      77516.515      6724.9433      48.731617      2.3577398     -150637.02     -148234.64    
     41100   1007.1918      49664.814      6724.9433      48.731617      2.3577398     -150607.67     -148223.88    
     41200   1022.6478      40229.043      6724.9433      48.731617      2.3577398     -150582.14     -148161.77    
     41300   1026.7672      62866.926      6724.9433      48.731617      2.3577398     -150552.79     -148122.67    
     41400   984.01673     -11698.796      6724.9433      48.731617      2.3577398     -150584.43     -148255.5     
     41500   988.39276      31878.423      6724.9433      48.731617      2.3577398     -150705.36     -148366.07    
     41600   979.60852      83953.981      6724.9433      48.731617      2.3577398     -150655.58     -148337.08    
     41700   995.71917      66939.159      6724.9433      48.731617      2.3577398     -150610.22     -148253.58    
     41800   1025.3531      20940.975      6724.9433      48.731617      2.3577398     -150643.96     -148217.19    
     41900   1036.3438      56453.406      6724.9433      48.731617      2.3577398     -150641.72     -148188.94    
     42000   1022.8175      3721.9792      6724.9433      48.731617      2.3577398     -150592.35     -148171.59    
     42100   1027.8682      78830.38       6724.9433      48.731617      2.3577398     -150700.3      -148267.58    
     42200   975.81606      59966.875      6724.9433      48.731617      2.3577398     -150703.98     -148394.46    
     42300   993.05717     -16178.111      6724.9433      48.731617      2.3577398     -150785.17     -148434.84    
     42400   1020.6473      47509.259      6724.9433      48.731617      2.3577398     -150768.03     -148352.4     
     42500   1033.2216      56305.432      6724.9433      48.731617      2.3577398     -150653.04     -148207.65    
     42600   1022.8237      33680.625      6724.9433      48.731617      2.3577398     -150578.82     -148158.04    
     42700   1002.5377      51444.376      6724.9433      48.731617      2.3577398     -150584.97     -148212.2     
     42800   1047.8645      5693.3921      6724.9433      48.731617      2.3577398     -150726.05     -148246.01    
     42900   1014.4193      4772.2013      6724.9433      48.731617      2.3577398     -150722.67     -148321.78    
     43000   1023.4242      29410.754      6724.9433      48.731617      2.3577398     -150828.91     -148406.7     
     43100   938.07785      82383.641      6724.9433      48.731617      2.3577398     -150806.47     -148586.26    
     43200   971.51765      23766.179      6724.9433      48.731617      2.3577398     -150872.25     -148572.9     
     43300   1004.7949      24215.173      6724.9433      48.731617      2.3577398     -150807.98     -148429.86    
     43400   947.40921      3939.5655      6724.9433      48.731617      2.3577398     -150628.76     -148386.47    
     43500   982.22386      59051.622      6724.9433      48.731617      2.3577398     -150615.68     -148290.99    
     43600   1001.5034      61892.49       6724.9433      48.731617      2.3577398     -150567.14     -148196.82    
     43700   1029.4633     -10319.145      6724.9433      48.731617      2.3577398     -150571.28     -148134.79    
     43800   995.45547      5680.1345      6724.9433      48.731617      2.3577398     -150621.35     -148265.34    
     43900   977.40937      32463.794      6724.9433      48.731617      2.3577398     -150683.82     -148370.53    
     44000   1012.052      -21085.065      6724.9433      48.731617      2.3577398     -150726.44     -148331.15    
     44100   1036.2113      33714.055      6724.9433      48.731617      2.3577398     -150687.94     -148235.47    
     44200   997.90252      33599.232      6724.9433      48.731617      2.3577398     -150574.81     -148213.01    
     44300   961.3521       51494.988      6724.9433      48.731617      2.3577398     -150613.03     -148337.74    
     44400   949.02255      104813.06      6724.9433      48.731617      2.3577398     -150686.27     -148440.16    
     44500   959.29778      15837.838      6724.9433      48.731617      2.3577398     -150615.25     -148344.81    
     44600   992.012       -22062.168      6724.9433      48.731617      2.3577398     -150599.22     -148251.36    
     44700   1001.2003      2017.9836      6724.9433      48.731617      2.3577398     -150653.3      -148283.7     
     44800   1035.4786      93121.694      6724.9433      48.731617      2.3577398     -150793.34     -148342.61    
     44900   945.40702      15393.78       6724.9433      48.731617      2.3577398     -150627.54     -148389.99    
     45000   974.17788     -3334.5572      6724.9433      48.731617      2.3577398     -150695.16     -148389.51    
     45100   1008.5826     -2261.2698      6724.9433      48.731617      2.3577398     -150688.73     -148301.65    
     45200   990.80187      49176.042      6724.9433      48.731617      2.3577398     -150534.79     -148189.8     
     45300   1019.0321      71791.265      6724.9433      48.731617      2.3577398     -150567.52     -148155.71    
     45400   1028.4249      54697.037      6724.9433      48.731617      2.3577398     -150610.37     -148176.34    
     45500   991.96625      74393.448      6724.9433      48.731617      2.3577398     -150688.28     -148340.53    
     45600   971.21671      40616.919      6724.9433      48.731617      2.3577398     -150698.58     -148399.94    
     45700   1020.5189      42550.583      6724.9433      48.731617      2.3577398     -150757.78     -148342.45    
     45800   1001.3193      38321.867      6724.9433      48.731617      2.3577398     -150587.45     -148217.57    
     45900   1048.1257      10578.98       6724.9433      48.731617      2.3577398     -150590.34     -148109.68    
     46000   1033.4392      16014.786      6724.9433      48.731617      2.3577398     -150604.48     -148158.58    
     46100   1002.5696      69374.021      6724.9433      48.731617      2.3577398     -150603.15     -148230.31    
     46200   931.35779     -7106.6013      6724.9433      48.731617      2.3577398     -150510.44     -148306.14    
     46300   999.68436      28862.092      6724.9433      48.731617      2.3577398     -150759.16     -148393.14    
     46400   973.8904       14141.572      6724.9433      48.731617      2.3577398     -150765.09     -148460.13    
     46500   1020.5354      25472.797      6724.9433      48.731617      2.3577398     -150712.12     -148296.76    
     46600   956.61593      57425.363      6724.9433      48.731617      2.3577398     -150438.6      -148174.52    
     46700   1036.8119      45324.531      6724.9433      48.731617      2.3577398     -150631.53     -148177.64    
     46800   1003.7403     -8142.3593      6724.9433      48.731617      2.3577398     -150669.93     -148294.31    
     46900   966.20223      56713.274      6724.9433      48.731617      2.3577398     -150665.67     -148378.9     
     47000   1013.8803      9061.5356      6724.9433      48.731617      2.3577398     -150753.38     -148353.77    
     47100   1021.0133      31254.929      6724.9433      48.731617      2.3577398     -150615.12     -148198.63    
     47200   1053.306       904.2095       6724.9433      48.731617      2.3577398     -150601.31     -148108.39    
     47300   1050.6513      13173.025      6724.9433      48.731617      2.3577398     -150666.48     -148179.83    
     47400   986.72032      28773.266      6724.9433      48.731617      2.3577398     -150616.29     -148280.95    
     47500   963.91033      41422.053      6724.9433      48.731617      2.3577398     -150636.19     -148354.84    
     47600   987.91966      20165.121      6724.9433      48.731617      2.3577398     -150739.78     -148401.61    
     47700   992.04904      9449.7361      6724.9433      48.731617      2.3577398     -150785.62     -148437.67    
     47800   962.00035      58612.308      6724.9433      48.731617      2.3577398     -150743.28     -148466.45    
     47900   977.23399      40641.485      6724.9433      48.731617      2.3577398     -150660.56     -148347.67    
     48000   1027.9268      3231.0399      6724.9433      48.731617      2.3577398     -150650.53     -148217.68    
     48100   990.16573      37325.897      6724.9433      48.731617      2.3577398     -150534.82     -148191.33    
     48200   1006.6176      24870.564      6724.9433      48.731617      2.3577398     -150619.04     -148236.61    
     48300   999.4927       41102.327      6724.9433      48.731617      2.3577398     -150774.06     -148408.5     
     48400   975.53957      37075.735      6724.9433      48.731617      2.3577398     -150766.47     -148457.6     
     48500   980.8792      -87.251451      6724.9433      48.731617      2.3577398     -150721.27     -148399.76    
     48600   1013.1523     -4594.9565      6724.9433      48.731617      2.3577398     -150709.74     -148311.85    
     48700   1014.4193     -6293.587       6724.9433      48.731617      2.3577398     -150676.05     -148275.16    
     48800   993.97195     -4553.8695      6724.9433      48.731617      2.3577398     -150626.29     -148273.8     
     48900   976.51393      36276.161      6724.9433      48.731617      2.3577398     -150667.22     -148356.05    
     49000   929.7793       50404.637      6724.9433      48.731617      2.3577398     -150707.91     -148507.34    
     49100   979.51892      78956.197      6724.9433      48.731617      2.3577398     -150807.22     -148488.93    
     49200   1012.4244      26958.249      6724.9433      48.731617      2.3577398     -150707.29     -148311.12    
     49300   1024.4993      37010.87       6724.9433      48.731617      2.3577398     -150704.65     -148279.9     
     49400   1018.8993     -35805.895      6724.9433      48.731617      2.3577398     -150701.03     -148289.53    
     49500   1013.9315      24333.54       6724.9433      48.731617      2.3577398     -150700.48     -148300.75    
     49600   952.80345      32391.774      6724.9433      48.731617      2.3577398     -150600.6      -148345.54    
     49700   1003.0148     -3495.2931      6724.9433      48.731617      2.3577398     -150668.96     -148295.06    
     49800   989.52455      2963.5054      6724.9433      48.731617      2.3577398     -150531.29     -148189.32    
     49900   1020.1316      26701.25       6724.9433      48.731617      2.3577398     -150508.91     -148094.5     
     50000   1005.3794      84299.682      6724.9433      48.731617      2.3577398     -150556.69     -148177.2     
     50100   999.97265     -2155.614       6724.9433      48.731617      2.3577398     -150713.26     -148346.56    
     50200   972.25421     -2360.9238      6724.9433      48.731617      2.3577398     -150655.7      -148354.6     
     50300   1008.4111     -7207.6576      6724.9433      48.731617      2.3577398     -150725.14     -148338.47    
     50400   1047.7443      65053.141      6724.9433      48.731617      2.3577398     -150704.82     -148225.06    
     50500   1043.7719      48043.189      6724.9433      48.731617      2.3577398     -150593.86     -148123.5     
     50600   1057.7037      76738.124      6724.9433      48.731617      2.3577398     -150607.46     -148104.13    
     50700   992.69799     -10284.595      6724.9433      48.731617      2.3577398     -150658.04     -148308.56    
     50800   983.79819      35369.946      6724.9433      48.731617      2.3577398     -150706        -148377.58    
     50900   991.74189     -7710.6382      6724.9433      48.731617      2.3577398     -150749.17     -148401.95    
     51000   965.93453     -27672.968      6724.9433      48.731617      2.3577398     -150659.12     -148372.98    
     51100   1013.2259      41411.551      6724.9433      48.731617      2.3577398     -150622.81     -148224.74    
     51200   1049.6268      72788.196      6724.9433      48.731617      2.3577398     -150611.19     -148126.97    
     51300   1020.8183      45277.265      6724.9433      48.731617      2.3577398     -150566.59     -148150.56    
     51400   1000.7673      41441.842      6724.9433      48.731617      2.3577398     -150633.46     -148264.88    
     51500   1045.1309      43356.734      6724.9433      48.731617      2.3577398     -150791.93     -148318.35    
     51600   1003.7763      41568.931      6724.9433      48.731617      2.3577398     -150701.95     -148326.25    
     51700   973.70137      80158.931      6724.9433      48.731617      2.3577398     -150593.46     -148288.94    
     51800   1014.2411      77622.2        6724.9433      48.731617      2.3577398     -150605        -148204.53    
     51900   1057.5711     -23516.394      6724.9433      48.731617      2.3577398     -150588.39     -148085.37    
     52000   1021.6934      51650.062      6724.9433      48.731617      2.3577398     -150576.2      -148158.09    
     52100   1008.3301     -75.846726      6724.9433      48.731617      2.3577398     -150733.51     -148347.03    
     52200   991.52652      63682.164      6724.9433      48.731617      2.3577398     -150719.83     -148373.12    
     52300   983.04363      44005.061      6724.9433      48.731617      2.3577398     -150612.34     -148285.71    
     52400   1023.3435      17622.997      6724.9433      48.731617      2.3577398     -150578.86     -148156.85    
     52500   1017.8441      54.863188      6724.9433      48.731617      2.3577398     -150549.86     -148140.86    
     52600   1015.8025      104660.31      6724.9433      48.731617      2.3577398     -150597.18     -148193.02    
     52700   989.10608      8886.8535      6724.9433      48.731617      2.3577398     -150583        -148242.02    
     52800   986.086        50122.096      6724.9433      48.731617      2.3577398     -150586.72     -148252.89    
     52900   1005.0588     -4261.3376      6724.9433      48.731617      2.3577398     -150643.74     -148265.01    
     53000   961.70352      1970.2675      6724.9433      48.731617      2.3577398     -150608.07     -148331.94    
     53100   996.87126      40212.512      6724.9433      48.731617      2.3577398     -150814.75     -148455.4     
     53200   947.78441      76839.584      6724.9433      48.731617      2.3577398     -150779.02     -148535.84    
     53300   968.63901      8951.9213      6724.9433      48.731617      2.3577398     -150660.94     -148368.4     
     53400   991.5026      -6927.6861      6724.9433      48.731617      2.3577398     -150646.63     -148299.98    
     53500   1011.5107      52513.067      6724.9433      48.731617      2.3577398     -150613.31     -148219.31    
     53600   989.37889      11472.438      6724.9433      48.731617      2.3577398     -150529.75     -148188.12    
     53700   1039.0066      30638.633      6724.9433      48.731617      2.3577398     -150675.62     -148216.53    
     53800   952.08563      60106.878      6724.9433      48.731617      2.3577398     -150599.04     -148345.68    
     53900   934.40504      23914.769      6724.9433      48.731617      2.3577398     -150589.31     -148377.8     
     54000   997.57406      64540.868      6724.9433      48.731617      2.3577398     -150596.7      -148235.67    
     54100   1014.5159      1570.5823      6724.9433      48.731617      2.3577398     -150517.26     -148116.14    
     54200   1048.1719      10935.24       6724.9433      48.731617      2.3577398     -150670.16     -148189.38    
     54300   979.09015      76511.939      6724.9433      48.731617      2.3577398     -150610.85     -148293.58    
     54400   984.06579      17636.229      6724.9433      48.731617      2.3577398     -150668.91     -148339.86    
     54500   980.51424     -30819.521      6724.9433      48.731617      2.3577398     -150617.55     -148296.91    
     54600   994.57425     -31149.336      6724.9433      48.731617      2.3577398     -150513.9      -148159.98    
     54700   1075.3494      25436.031      6724.9433      48.731617      2.3577398     -150539.03     -147993.93    
     54800   1075.4406      33394.804      6724.9433      48.731617      2.3577398     -150658.9      -148113.58    
     54900   1012.2331      21675.845      6724.9433      48.731617      2.3577398     -150632.58     -148236.86    
     55000   998.86046      14608.892      6724.9433      48.731617      2.3577398     -150651.32     -148287.25    
     55100   949.42949      5342.1005      6724.9433      48.731617      2.3577398     -150584.51     -148337.43    
     55200   972.97956     -6496.1634      6724.9433      48.731617      2.3577398     -150625.99     -148323.18    
     55300   997.94919      5996.1849      6724.9433      48.731617      2.3577398     -150620.16     -148258.25    
     55400   1041.7723     -17827.672      6724.9433      48.731617      2.3577398     -150633.76     -148168.13    
     55500   1053.9188      55420.003      6724.9433      48.731617      2.3577398     -150681.55     -148187.17    
     55600   994.25487     -715.65526      6724.9433      48.731617      2.3577398     -150700.19     -148347.03    
     55700   982.03342     -13667.663      6724.9433      48.731617      2.3577398     -150702.61     -148378.37    
     55800   1009.6607     -24180.449      6724.9433      48.731617      2.3577398     -150720.86     -148331.23    
     55900   1004.1906     -19387.177      6724.9433      48.731617      2.3577398     -150648.52     -148271.84    
     56000   1065.2232      42765.208      6724.9433      48.731617      2.3577398     -150570.84     -148049.71    
     56100   1033.2594      53007.967      6724.9433      48.731617      2.3577398     -150538.67     -148093.19    
     56200   994.4044       57346.838      6724.9433      48.731617      2.3577398     -150574.42     -148220.9     
     56300   983.31995     -18302.735      6724.9433      48.731617      2.3577398     -150637.24     -148309.95    
     56400   962.54927      54323.913      6724.9433      48.731617      2.3577398     -150628.18     -148350.05    
     56500   983.85509      70932.974      6724.9433      48.731617      2.3577398     -150626.89     -148298.33    
     56600   1027.1503      4770.9887      6724.9433      48.731617      2.3577398     -150532.26     -148101.24    
     56700   1080.26       -15744.784      6724.9433      48.731617      2.3577398     -150637.6      -148080.88    
     56800   971.00124      63919.434      6724.9433      48.731617      2.3577398     -150509.1      -148210.97    
     56900   1012.0601      44245.864      6724.9433      48.731617      2.3577398     -150639.39     -148244.09    
     57000   1007.4784      51506.18       6724.9433      48.731617      2.3577398     -150633.27     -148248.81    
     57100   996.84288      34729.603      6724.9433      48.731617      2.3577398     -150538.5      -148179.21    
     57200   1019.7358     -16096.411      6724.9433      48.731617      2.3577398     -150504.76     -148091.28    
     57300   1014.5912     -43033.75       6724.9433      48.731617      2.3577398     -150546.32     -148145.02    
     57400   967.62558     -17479.657      6724.9433      48.731617      2.3577398     -150600.67     -148310.53    
     57500   1006.9043      13811.82       6724.9433      48.731617      2.3577398     -150693.21     -148310.1     
     57600   985.17743     -14328.54       6724.9433      48.731617      2.3577398     -150605.89     -148274.21    
     57700   1019.1028      32090.968      6724.9433      48.731617      2.3577398     -150547.54     -148135.56    
     57800   1074.672       11525.573      6724.9433      48.731617      2.3577398     -150628.87     -148085.38    
     57900   984.15038     -24800.21       6724.9433      48.731617      2.3577398     -150619.02     -148289.77    
     58000   1011.3562     -16208.574      6724.9433      48.731617      2.3577398     -150732.54     -148338.9     
     58100   1006.1012      30270.756      6724.9433      48.731617      2.3577398     -150697.09     -148315.88    
     58200   1016.1302      91340.239      6724.9433      48.731617      2.3577398     -150668.22     -148263.28    
     58300   1013.2459      25811.689      6724.9433      48.731617      2.3577398     -150584.03     -148185.92    
     58400   1038.696       1311.9639      6724.9433      48.731617      2.3577398     -150556.69     -148098.34    
     58500   994.91677     -8798.5293      6724.9433      48.731617      2.3577398     -150602.97     -148248.23    
     58600   1005.1928      17712.057      6724.9433      48.731617      2.3577398     -150749.54     -148370.49    
     58700   991.74684      81309.424      6724.9433      48.731617      2.3577398     -150728.33     -148381.1     
     58800   1001.1343      33312.512      6724.9433      48.731617      2.3577398     -150634.37     -148264.92    
     58900   1021.6661      16614.119      6724.9433      48.731617      2.3577398     -150577.97     -148159.93    
     59000   1022.6237      24606.596      6724.9433      48.731617      2.3577398     -150612.59     -148192.28    
     59100   1029.6784     -5775.927       6724.9433      48.731617      2.3577398     -150727.48     -148290.47    
     59200   990.16637      46139.39       6724.9433      48.731617      2.3577398     -150691.41     -148347.92    
     59300   999.58425      2300.2362      6724.9433      48.731617      2.3577398     -150687.84     -148322.06    
     59400   1011.6948     -2491.952       6724.9433      48.731617      2.3577398     -150659.88     -148265.44    
     59500   1052.869       3805.2385      6724.9433      48.731617      2.3577398     -150730.75     -148238.86    
     59600   960.26677      28711.219      6724.9433      48.731617      2.3577398     -150614.23     -148341.5     
     59700   997.20425      68425.757      6724.9433      48.731617      2.3577398     -150809.22     -148449.07    
     59800   990.04032      46104.422      6724.9433      48.731617      2.3577398     -150743.01     -148399.82    
     59900   1012.3785      16535.368      6724.9433      48.731617      2.3577398     -150649.51     -148253.45    
     60000   1035.3115     -5513.9908      6724.9433      48.731617      2.3577398     -150674.73     -148224.39    
     60100   984.87948      62155.515      6724.9433      48.731617      2.3577398     -150571.21     -148240.23    
     60200   988.83239      74052.475      6724.9433      48.731617      2.3577398     -150642.63     -148302.3     
     60300   974.25907      28457.144      6724.9433      48.731617      2.3577398     -150784.79     -148478.95    
     60400   1001.834      -60429.922      6724.9433      48.731617      2.3577398     -150860.86     -148489.76    
     60500   985.90047     -13127.756      6724.9433      48.731617      2.3577398     -150720.11     -148386.71    
     60600   1019.1146     -206.2873       6724.9433      48.731617      2.3577398     -150727.75     -148315.75    
     60700   1001.1986      56029.797      6724.9433      48.731617      2.3577398     -150642.37     -148272.77    
     60800   992.72207      78892.729      6724.9433      48.731617      2.3577398     -150570.06     -148220.52    
     60900   1046.4621      75310.872      6724.9433      48.731617      2.3577398     -150613.09     -148136.36    
     61000   1078.6188      74848.104      6724.9433      48.731617      2.3577398     -150550.52     -147997.68    
     61100   1048.6934      17055.041      6724.9433      48.731617      2.3577398     -150564.26     -148082.25    
     61200   1044.2656      26763.717      6724.9433      48.731617      2.3577398     -150729.59     -148258.06    
     61300   997.60354      29649.741      6724.9433      48.731617      2.3577398     -150704.9      -148343.8     
     61400   1009.3319      76663.92       6724.9433      48.731617      2.3577398     -150721.75     -148332.9     
     61500   1021.1183     -3734.6889      6724.9433      48.731617      2.3577398     -150663.79     -148247.04    
     61600   1031.0749     -67206.171      6724.9433      48.731617      2.3577398     -150559.99     -148119.68    
     61700   1016.7666     -21615.879      6724.9433      48.731617      2.3577398     -150593.63     -148187.18    
     61800   965.57935      22147.989      6724.9433      48.731617      2.3577398     -150611.35     -148326.05    
     61900   1007.6494      26446.006      6724.9433      48.731617      2.3577398     -150691.83     -148306.96    
     62000   1008.8         41582.4        6724.9433      48.731617      2.3577398     -150605.48     -148217.89    
     62100   1000.873       55172.735      6724.9433      48.731617      2.3577398     -150478.55     -148109.72    
     62200   996.83726      27452.508      6724.9433      48.731617      2.3577398     -150482.81     -148123.54    
     62300   1016.0618      88907.128      6724.9433      48.731617      2.3577398     -150722.37     -148317.59    
     62400   967.2451      -13533.49       6724.9433      48.731617      2.3577398     -150664.18     -148374.94    
     62500   1015.1607      47695.971      6724.9433      48.731617      2.3577398     -150746.49     -148343.84    
     62600   1028.4707      61387.814      6724.9433      48.731617      2.3577398     -150727.47     -148293.33    
     62700   1023.7472      68792.374      6724.9433      48.731617      2.3577398     -150625.1      -148202.13    
     62800   1017.5861     -26885.387      6724.9433      48.731617      2.3577398     -150508.83     -148100.44    
     62900   1021.614       80257.87       6724.9433      48.731617      2.3577398     -150502.09     -148084.17    
     63000   971.31564      41985.986      6724.9433      48.731617      2.3577398     -150609.29     -148310.42    
     63100   997.03153      27660.413      6724.9433      48.731617      2.3577398     -150725.42     -148365.69    
     63200   964.76691      37415.59       6724.9433      48.731617      2.3577398     -150643.44     -148360.07    
     63300   1002.5259      34769.117      6724.9433      48.731617      2.3577398     -150611.03     -148238.29    
     63400   992.16976     -24656.798      6724.9433      48.731617      2.3577398     -150499.83     -148151.6     
     63500   1030.1338      6448.6054      6724.9433      48.731617      2.3577398     -150628.77     -148190.69    
     63600   1019.3055     -1042.2321      6724.9433      48.731617      2.3577398     -150720.6      -148308.15    
     63700   988.36816      29789.471      6724.9433      48.731617      2.3577398     -150673.16     -148333.92    
     63800   980.05692      271.85574      6724.9433      48.731617      2.3577398     -150624.13     -148304.56    
     63900   1043.2859      11602.587      6724.9433      48.731617      2.3577398     -150681.63     -148212.42    
     64000   1056.037       20544.207      6724.9433      48.731617      2.3577398     -150657.74     -148158.35    
     64100   1016.6604      25923.754      6724.9433      48.731617      2.3577398     -150608.15     -148201.96    
     64200   1004.17        32934.031      6724.9433      48.731617      2.3577398     -150760.69     -148384.06    
     64300   957.56986      4794.8608      6724.9433      48.731617      2.3577398     -150683.52     -148417.18    
     64400   964.74776      2353.9894      6724.9433      48.731617      2.3577398     -150610.87     -148327.54    
     64500   1006.4067      25454.347      6724.9433      48.731617      2.3577398     -150608.36     -148226.44    
[...]
    384200   961.8568       30782.59       6724.9433      48.731617      2.3577398     -150659.41     -148382.93    
    384300   1001.371       72347.168      6724.9433      48.731617      2.3577398     -150774.11     -148404.11    
    384400   999.69336      32518.294      6724.9433      48.731617      2.3577398     -150719.09     -148353.06    
    384500   1052.1853      14920.59       6724.9433      48.731617      2.3577398     -150694.38     -148204.1     
    384600   1025.5446      52740.262      6724.9433      48.731617      2.3577398     -150637.7      -148210.48    
    384700   1007.911       40055.914      6724.9433      48.731617      2.3577398     -150705.09     -148319.6     
    384800   1028.8731      4897.4748      6724.9433      48.731617      2.3577398     -150785.81     -148350.71    
    384900   1044.1992      27774.8        6724.9433      48.731617      2.3577398     -150788.45     -148317.08    
    385000   1040.2146     -17420.44       6724.9433      48.731617      2.3577398     -150781.31     -148319.37    
    385100   1015.893       36185.844      6724.9433      48.731617      2.3577398     -150786.35     -148381.97    
    385200   986.64697      31271.482      6724.9433      48.731617      2.3577398     -150836.26     -148501.1     
    385300   939.43709      59593.849      6724.9433      48.731617      2.3577398     -150734.3      -148510.88    
    385400   994.93565     -29830.001      6724.9433      48.731617      2.3577398     -150682.78     -148328       
    385500   1023.4305      24859.509      6724.9433      48.731617      2.3577398     -150721.7      -148299.48    
    385600   985.85608     -30885.959      6724.9433      48.731617      2.3577398     -150657.35     -148324.06    
    385700   996.64255      80848.193      6724.9433      48.731617      2.3577398     -150692.96     -148334.14    
    385800   985.77809      42758.132      6724.9433      48.731617      2.3577398     -150733.35     -148400.25    
    385900   967.77732      4017.8813      6724.9433      48.731617      2.3577398     -150743.58     -148453.08    
    386000   952.22302      7401.3465      6724.9433      48.731617      2.3577398     -150673.46     -148419.78    
    386100   1008.1713     -7249.8503      6724.9433      48.731617      2.3577398     -150658.45     -148272.35    
    386200   1036.5112      49700.388      6724.9433      48.731617      2.3577398     -150683.65     -148230.48    
    386300   992.06623      44480.449      6724.9433      48.731617      2.3577398     -150646.84     -148298.86    
    386400   958.56371      56852.224      6724.9433      48.731617      2.3577398     -150741.83     -148473.14    
    386500   952.55457      3701.6603      6724.9433      48.731617      2.3577398     -150783.5      -148529.02    
    386600   980.23866     -13869.917      6724.9433      48.731617      2.3577398     -150776.96     -148456.96    
    386700   984.31914      28949.456      6724.9433      48.731617      2.3577398     -150752.17     -148422.52    
    386800   1011.3296      24093.157      6724.9433      48.731617      2.3577398     -150732.85     -148339.27    
    386900   996.43113      53116.414      6724.9433      48.731617      2.3577398     -150635.18     -148276.87    
    387000   1024.0457      70778.026      6724.9433      48.731617      2.3577398     -150606.22     -148182.55    
    387100   1096.7738     -24893.912      6724.9433      48.731617      2.3577398     -150646.16     -148050.35    
    387200   1038.5518      36751.348      6724.9433      48.731617      2.3577398     -150603.67     -148145.66    
    387300   979.47801     -999.74734      6724.9433      48.731617      2.3577398     -150658.95     -148340.76    
    387400   970.20682      36068.749      6724.9433      48.731617      2.3577398     -150684.45     -148388.2     
    387500   965.64632     -691.23242      6724.9433      48.731617      2.3577398     -150672.81     -148387.36    
    387600   1016.4742      42792.272      6724.9433      48.731617      2.3577398     -150723.88     -148318.13    
    387700   1016.2517      89148.86       6724.9433      48.731617      2.3577398     -150641.31     -148236.09    
    387800   1038.1237      23916.365      6724.9433      48.731617      2.3577398     -150611.56     -148154.57    
    387900   1006.1008      13659.918      6724.9433      48.731617      2.3577398     -150567.29     -148186.09    
    388000   976.31013      74882.47       6724.9433      48.731617      2.3577398     -150663.26     -148352.56    
    388100   979.88154      31690.517      6724.9433      48.731617      2.3577398     -150724.38     -148405.23    
    388200   984.19314      27339.261      6724.9433      48.731617      2.3577398     -150665.07     -148335.72    
    388300   984.09528      24615.941      6724.9433      48.731617      2.3577398     -150563.81     -148234.69    
    388400   1034.6977      28594.733      6724.9433      48.731617      2.3577398     -150657.64     -148208.76    
    388500   975.49971      48452.402      6724.9433      48.731617      2.3577398     -150571.8      -148263.03    
    388600   997.09477      83517.463      6724.9433      48.731617      2.3577398     -150649.28     -148289.4     
    388700   992.11529      55325.703      6724.9433      48.731617      2.3577398     -150692.86     -148344.76    
    388800   988.7237       17500.02       6724.9433      48.731617      2.3577398     -150697.08     -148357.01    
    388900   1030.7588      13116.681      6724.9433      48.731617      2.3577398     -150796.93     -148357.37    
    389000   983.93546      16571.739      6724.9433      48.731617      2.3577398     -150738.23     -148409.49    
    389100   950.15393      53878.877      6724.9433      48.731617      2.3577398     -150629.5      -148380.71    
    389200   990.35513      45297.915      6724.9433      48.731617      2.3577398     -150598.67     -148254.74    
    389300   1056.2432      62652.6        6724.9433      48.731617      2.3577398     -150658.48     -148158.6     
    389400   1005.4888     -38955.561      6724.9433      48.731617      2.3577398     -150630.17     -148250.42    
    389500   1005.1318      45503.163      6724.9433      48.731617      2.3577398     -150704.92     -148326.01    
    389600   993.50889      69516.741      6724.9433      48.731617      2.3577398     -150691.85     -148340.45    
    389700   1014.2387      43599.188      6724.9433      48.731617      2.3577398     -150688.84     -148288.38    
    389800   1047.6125      18705.782      6724.9433      48.731617      2.3577398     -150653.15     -148173.7     
    389900   1020.611      -20331          6724.9433      48.731617      2.3577398     -150554.81     -148139.26    
    390000   993.4739       19831.243      6724.9433      48.731617      2.3577398     -150640.66     -148289.34    
    390100   966.82111      34552.149      6724.9433      48.731617      2.3577398     -150712.52     -148424.28    
    390200   939.48064      43293.467      6724.9433      48.731617      2.3577398     -150693.33     -148469.8     
    390300   1077.7686     -8591.4771      6724.9433      48.731617      2.3577398     -150913.48     -148362.66    
    390400   1007.8544      23190.042      6724.9433      48.731617      2.3577398     -150656.28     -148270.93    
    390500   1000.8059      22254.874      6724.9433      48.731617      2.3577398     -150573.11     -148204.44    
    390600   973.80423     -1891.5115      6724.9433      48.731617      2.3577398     -150643.39     -148338.63    
    390700   925.54058      24968.8        6724.9433      48.731617      2.3577398     -150687.42     -148496.89    
    390800   981.77663      24407.178      6724.9433      48.731617      2.3577398     -150763.2      -148439.57    
    390900   1009.7431      15362.997      6724.9433      48.731617      2.3577398     -150699.84     -148310.01    
    391000   1040.7553      23539.23       6724.9433      48.731617      2.3577398     -150709.29     -148246.07    
    391100   1017.8279      97724.085      6724.9433      48.731617      2.3577398     -150676.48     -148267.52    
    391200   948.77343      18365.357      6724.9433      48.731617      2.3577398     -150670.76     -148425.24    
    391300   986.66557      1409.5741      6724.9433      48.731617      2.3577398     -150833.54     -148498.34    
    391400   955.87099      30497.799      6724.9433      48.731617      2.3577398     -150690.35     -148428.03    
    391500   975.50726     -94.831214      6724.9433      48.731617      2.3577398     -150641.25     -148332.45    
    391600   1003.5321      44528.417      6724.9433      48.731617      2.3577398     -150676.52     -148301.4     
    391700   995.95127      3989.5775      6724.9433      48.731617      2.3577398     -150671.08     -148313.9     
    391800   1007.54        12475.171      6724.9433      48.731617      2.3577398     -150677.36     -148292.75    
    391900   1031.7069      23073.875      6724.9433      48.731617      2.3577398     -150620.04     -148178.24    
    392000   1034.5088      2762.2059      6724.9433      48.731617      2.3577398     -150556.58     -148108.15    
    392100   1022.4104      36704.319      6724.9433      48.731617      2.3577398     -150665.41     -148245.61    
    392200   994.60422      57340.064      6724.9433      48.731617      2.3577398     -150728        -148374.01    
    392300   987.47098     -7270.6728      6724.9433      48.731617      2.3577398     -150705.01     -148367.9     
    392400   1031.0611      13346.079      6724.9433      48.731617      2.3577398     -150713.98     -148273.7     
    392500   980.93911      32936.177      6724.9433      48.731617      2.3577398     -150537.34     -148215.69    
    392600   1035.8255      102128.47      6724.9433      48.731617      2.3577398     -150615.35     -148163.79    
    392700   1011.4692      31950.926      6724.9433      48.731617      2.3577398     -150637.63     -148243.73    
    392800   961.74357      64079.55       6724.9433      48.731617      2.3577398     -150656.16     -148379.94    
    392900   985.27377      17033.396      6724.9433      48.731617      2.3577398     -150733.53     -148401.62    
    393000   1014.4118      13087.05       6724.9433      48.731617      2.3577398     -150761.85     -148360.98    
    393100   1018.4367     -65595.192      6724.9433      48.731617      2.3577398     -150608.57     -148198.17    
    393200   1020.419       40816.197      6724.9433      48.731617      2.3577398     -150584.09     -148169       
    393300   1008.5096      49613.069      6724.9433      48.731617      2.3577398     -150702.95     -148316.05    
    393400   987.54221      15496.908      6724.9433      48.731617      2.3577398     -150684.47     -148347.19    
    393500   950.52901      38503.891      6724.9433      48.731617      2.3577398     -150580.81     -148331.13    
    393600   1068.9835      12231.959      6724.9433      48.731617      2.3577398     -150787.34     -148257.31    
    393700   996.56806      34196.661      6724.9433      48.731617      2.3577398     -150585.35     -148226.71    
    393800   966.30584      73890.284      6724.9433      48.731617      2.3577398     -150596.08     -148309.07    
    393900   1004.7353      18921.664      6724.9433      48.731617      2.3577398     -150813.94     -148435.97    
    394000   963.04824      12220.036      6724.9433      48.731617      2.3577398     -150724.38     -148445.07    
    394100   972.28062      25800.673      6724.9433      48.731617      2.3577398     -150599.46     -148298.3     
    394200   1046.8044      26192.434      6724.9433      48.731617      2.3577398     -150687.51     -148209.97    
    394300   1008.9654     -7339.3616      6724.9433      48.731617      2.3577398     -150636.28     -148248.3     
    394400   1012.0506      29864.788      6724.9433      48.731617      2.3577398     -150706.39     -148311.1     
    394500   940.10012      19675.172      6724.9433      48.731617      2.3577398     -150631.68     -148406.69    
    394600   991.18074      27036.376      6724.9433      48.731617      2.3577398     -150813.62     -148467.73    
    394700   983.50857      60209.712      6724.9433      48.731617      2.3577398     -150756.56     -148428.83    
    394800   1028.859       10477.576      6724.9433      48.731617      2.3577398     -150728.12     -148293.05    
    394900   1002.4942      19573.951      6724.9433      48.731617      2.3577398     -150620.79     -148248.13    
    395000   940.67111      80068.564      6724.9433      48.731617      2.3577398     -150510.61     -148284.26    
    395100   980.89651      40694.935      6724.9433      48.731617      2.3577398     -150735.5      -148413.96    
    395200   976.9725       70324.704      6724.9433      48.731617      2.3577398     -150783.27     -148471.01    
    395300   982.92039     -16839.317      6724.9433      48.731617      2.3577398     -150664.92     -148338.58    
    395400   1031.4663      9794.3063      6724.9433      48.731617      2.3577398     -150668.72     -148227.48    
    395500   1016.9083      39533.761      6724.9433      48.731617      2.3577398     -150679.94     -148273.16    
    395600   949.10988      41100.258      6724.9433      48.731617      2.3577398     -150601.11     -148354.79    
    395700   981.70775      34512.813      6724.9433      48.731617      2.3577398     -150679.24     -148355.77    
    395800   1026.7632      19166.57       6724.9433      48.731617      2.3577398     -150671.31     -148241.21    
    395900   1069.5314     -776.44017      6724.9433      48.731617      2.3577398     -150664.33     -148133       
    396000   989.65456     -7971.3552      6724.9433      48.731617      2.3577398     -150573.44     -148231.16    
    396100   1008.0652      75915.595      6724.9433      48.731617      2.3577398     -150745.88     -148360.03    
    396200   979.75963      63982.422      6724.9433      48.731617      2.3577398     -150677.74     -148358.88    
    396300   994.0132       70875.531      6724.9433      48.731617      2.3577398     -150660.25     -148307.66    
    396400   998.98768      45611.591      6724.9433      48.731617      2.3577398     -150600.18     -148235.81    
    396500   1043.4006     -732.17775      6724.9433      48.731617      2.3577398     -150640.7      -148171.22    
    396600   1031.6725      32500.92       6724.9433      48.731617      2.3577398     -150621.09     -148179.37    
    396700   980.66339     -7273.6014      6724.9433      48.731617      2.3577398     -150666.82     -148345.82    
    396800   985.96952      7077.918       6724.9433      48.731617      2.3577398     -150708.01     -148374.45    
    396900   990.36278      62597.073      6724.9433      48.731617      2.3577398     -150666.4      -148322.45    
    397000   1063.338       3079.714       6724.9433      48.731617      2.3577398     -150719.21     -148202.55    
    397100   1023.4646      4572.464       6724.9433      48.731617      2.3577398     -150558.04     -148135.74    
    397200   1044.8578     -2130.4612      6724.9433      48.731617      2.3577398     -150626.02     -148153.09    
    397300   998.78245      101816.68      6724.9433      48.731617      2.3577398     -150694.27     -148330.39    
    397400   1000.7947      32400.866      6724.9433      48.731617      2.3577398     -150760.16     -148391.52    
    397500   1012.4096      5521.8277      6724.9433      48.731617      2.3577398     -150746.48     -148350.34    
    397600   1027.9753     -41410.045      6724.9433      48.731617      2.3577398     -150725.63     -148292.66    
    397700   1041.9019      7954.1061      6724.9433      48.731617      2.3577398     -150668.21     -148202.28    
    397800   1009.6899      70923.622      6724.9433      48.731617      2.3577398     -150630.24     -148240.54    
    397900   937.07746      16494.637      6724.9433      48.731617      2.3577398     -150609.12     -148391.28    
    398000   995.63893      21614.428      6724.9433      48.731617      2.3577398     -150752.66     -148396.22    
    398100   984.23756      10930.69       6724.9433      48.731617      2.3577398     -150652.4      -148322.95    
    398200   1008.2591      58145.225      6724.9433      48.731617      2.3577398     -150643.29     -148256.98    
    398300   1023.4061     -32652.043      6724.9433      48.731617      2.3577398     -150502.64     -148080.48    
    398400   1023.1387      21433.341      6724.9433      48.731617      2.3577398     -150473.07     -148051.55    
    398500   1016.1187     -2246.2432      6724.9433      48.731617      2.3577398     -150618.54     -148213.63    
    398600   1047.6639      68939.136      6724.9433      48.731617      2.3577398     -150775.98     -148296.41    
    398700   996.2456       18310.529      6724.9433      48.731617      2.3577398     -150735.37     -148377.49    
    398800   978.96593      2607.2399      6724.9433      48.731617      2.3577398     -150736.77     -148419.79    
    398900   991.72169      47120.802      6724.9433      48.731617      2.3577398     -150759.63     -148412.46    
    399000   990.5112      -2485.7395      6724.9433      48.731617      2.3577398     -150616.67     -148272.36    
    399100   1035.0294      5355.7293      6724.9433      48.731617      2.3577398     -150625.71     -148176.04    
    399200   1047.0552      48139.334      6724.9433      48.731617      2.3577398     -150697.08     -148218.95    
    399300   935.23152      37291.527      6724.9433      48.731617      2.3577398     -150579.02     -148365.54    
    399400   1012.5853      46729.916      6724.9433      48.731617      2.3577398     -150755.64     -148359.09    
    399500   1017.2436      10001.997      6724.9433      48.731617      2.3577398     -150747.74     -148340.17    
    399600   976.79276     -8602.3683      6724.9433      48.731617      2.3577398     -150649.17     -148337.33    
    399700   1036.8747      85066.358      6724.9433      48.731617      2.3577398     -150703.59     -148249.55    
    399800   1057.7617      26430.811      6724.9433      48.731617      2.3577398     -150570.46     -148066.99    
    399900   1037.4644     -24889.004      6724.9433      48.731617      2.3577398     -150565.08     -148109.65    
    400000   1012.3964      16061.97       6724.9433      48.731617      2.3577398     -150652.13     -148256.02    
    400011   1048.2712      4492.876       6724.9433      48.731617      2.3577398     -150751.83     -148270.82    
Loop time of 14885.9 on 64 procs for 400000 steps with 795 atoms

Performance: 0.580 ns/day, 41.350 hours/ns, 26.871 timesteps/s
99.7% CPU use with 64 MPI tasks x 1 OpenMP threads

MPI task timing breakdown:
Section |  min time  |  avg time  |  max time  |%varavg| %total
---------------------------------------------------------------
Pair    | 8038.3     | 10771      | 13339      |1520.5 | 72.36
Neigh   | 97.593     | 136.46     | 164.6      | 169.7 |  0.92
Comm    | 224.08     | 2598.3     | 5194.1     |2843.5 | 17.45
Output  | 0.50406    | 0.61305    | 0.83814    |   8.6 |  0.00
Modify  | 1152.2     | 1376.2     | 2063.1     | 592.6 |  9.24
Other   |            | 2.889      |            |       |  0.02

Nlocal:        12.4219 ave          15 max           3 min
Histogram: 2 1 1 0 2 7 2 5 14 30
Nghost:        2089.98 ave        2344 max        1804 min
Histogram: 14 2 0 3 7 5 14 5 3 11
Neighs:        6972.31 ave        9199 max        1167 min
Histogram: 2 2 0 2 5 4 8 8 21 12

Total # of neighbors = 446228
Ave neighs/atom = 561.29308
Neighbor list builds = 12944
Dangerous builds = 0

write_data graphene_single_layer_ReaxFF_795_C_temp_1000K.data ### MODIFY FILE NAME ###
System init for write_data ...
Total wall time: 4:08:08
