
# System definition
read_data graphene_single_layer_x-45_y-45_795_C.data ### MODIFY FILE NAME ###
Reading data file ...
  orthogonal box = (-1.4464652 -1.4423034 -1.42) to (47.285152 47.149102 1.42)
  8 by 8 by 1 MPI processor grid
  reading atoms ...
  795 atoms
  reading velocities ...
  795 velocities
  read_data CPU = 0.013 seconds

pair_style reax/c NULL
pair_coeff * * ffield.reax.cho C
Reading potential file ffield.reax.cho with DATE: 2011-02-18
fix qeq_reax all qeq/reax 1 0.0 10.0 1.0e-6 reax/c


# Minimization
timestep 0.25
min_style cg
thermo 100
thermo_style custom step temp press vol lx density pe etotal
dump 2 all custom 1000 graphene_single_layer_ReaxFF_795_C_temp_400K.lammpstrj id type x y z ### MODIFY FILE NAME ###
minimize 1.0e-6 1.0e-6 100 1000

CITE-CITE-CITE-CITE-CITE-CITE-CITE-CITE-CITE-CITE-CITE-CITE-CITE

Your simulation uses code contributions which should be cited:

- pair reaxff command:

@Article{Aktulga12,
 author = {H. M. Aktulga, J. C. Fogarty, S. A. Pandit, A. Y. Grama},
 title = {Parallel reactive molecular dynamics: Numerical methods and algorithmic techniques},
 journal = {Parallel Computing},
 year =    2012,
 volume =  38,
 pages =   {245--259}
}

- fix qeq/reaxff command:

@Article{Aktulga12,
 author = {H. M. Aktulga, J. C. Fogarty, S. A. Pandit, A. Y. Grama},
 title = {Parallel reactive molecular dynamics: Numerical methods and algorithmic techniques},
 journal = {Parallel Computing},
 year =    2012,
 volume =  38,
 pages =   {245--259}
}

CITE-CITE-CITE-CITE-CITE-CITE-CITE-CITE-CITE-CITE-CITE-CITE-CITE

WARNING: Using 'neigh_modify every 1 delay 0 check yes' setting during minimization (src/min.cpp:187)
Neighbor list info ...
  update every 1 steps, delay 0 steps, check yes
  max neighbors/atom: 10000, page size: 100000
  master list distance cutoff = 10.4
  ghost atom cutoff = 10.4
  binsize = 5.2, bins = 10 10 1
  2 neighbor lists, perpetual/occasional/extra = 2 0 0
  (1) pair reax/c, perpetual
      attributes: half, newton off, ghost
      pair build: half/bin/newtoff/ghost
      stencil: full/ghost/bin/3d
      bin: standard
  (2) fix qeq/reax, perpetual, copy from (1)
      attributes: half, newton off
      pair build: copy
      stencil: none
      bin: none
Per MPI rank memory allocation (min/avg/max) = 36.37 | 41.41 | 47.38 Mbytes
   Step          Temp          Press          Volume           Lx          Density         PotEng         TotEng    
         0   923            34054.396      6724.9433      48.731617      2.3577398     -151766.67     -149582.14    
        11   923            35396.792      6724.9433      48.731617      2.3577398     -151904.55     -149720.03    
Loop time of 2.11673 on 64 procs for 11 steps with 795 atoms

99.5% CPU use with 64 MPI tasks x 1 OpenMP threads

Minimization stats:
  Stopping criterion = energy tolerance
  Energy initial, next-to-last, final = 
     -151766.666472543  -151904.508881892  -151904.547898656
  Force two-norm initial, final = 279.94165 356.09863
  Force max component initial, final = 137.99181 55.448555
  Final line search alpha, max atom move = 0.00038853166 0.021543519
  Iterations, force evaluations = 11 32

MPI task timing breakdown:
Section |  min time  |  avg time  |  max time  |%varavg| %total
---------------------------------------------------------------
Pair    | 0.80918    | 1.2355     | 1.6637     |  16.4 | 58.37
Neigh   | 0.011982   | 0.018283   | 0.024944   |   2.3 |  0.86
Comm    | 0.12511    | 0.47167    | 0.95997    |  24.2 | 22.28
Output  | 0          | 0          | 0          |   0.0 |  0.00
Modify  | 0.29868    | 0.30542    | 0.31176    |   0.6 | 14.43
Other   |            | 0.08584    |            |       |  4.06

Nlocal:        12.4219 ave          15 max          10 min
Histogram: 15 0 0 0 22 0 12 0 0 15
Nghost:        2194.12 ave        2559 max        1869 min
Histogram: 2 8 9 4 12 12 5 4 6 2
Neighs:        6807.34 ave        8856 max        4476 min
Histogram: 4 8 3 7 7 13 5 2 0 15

Total # of neighbors = 435670
Ave neighs/atom = 548.01258
Neighbor list builds = 1
Dangerous builds = 0

fix 1 all nvt temp 400.0 400.0 $(100.0*dt)  ### MODIFY INIT TEMP, FINAL TEMP ###
fix 1 all nvt temp 400.0 400.0 25  
run 400000
Per MPI rank memory allocation (min/avg/max) = 35.25 | 40.29 | 46.26 Mbytes
   Step          Temp          Press          Volume           Lx          Density         PotEng         TotEng    
        11   923            35396.792      6724.9433      48.731617      2.3577398     -151904.55     -149720.03    
       100   523.20058      42323.756      6724.9433      48.731617      2.3577398     -151085.57     -149847.27    
       200   430.16345      159296.74      6724.9433      48.731617      2.3577398     -151081.83     -150063.73    
       300   498.28914     -87783.626      6724.9433      48.731617      2.3577398     -151450.97     -150271.64    
       400   483.96872      30487.546      6724.9433      48.731617      2.3577398     -151632.28     -150486.84    
       500   475.44982     -555.95325      6724.9433      48.731617      2.3577398     -151846.94     -150721.66    
       600   442.86825     -31406.589      6724.9433      48.731617      2.3577398     -151979.45     -150931.28    
       700   395.24998      17100.83       6724.9433      48.731617      2.3577398     -152028.47     -151093.01    
       800   372.98992      5928.2788      6724.9433      48.731617      2.3577398     -152071.57     -151188.79    
       900   390.95331     -35911.007      6724.9433      48.731617      2.3577398     -152156.77     -151231.48    
      1000   402.8286       77337.955      6724.9433      48.731617      2.3577398     -152158.46     -151205.06    
      1100   410.67408      16721.239      6724.9433      48.731617      2.3577398     -152111.78     -151139.81    
      1200   436.38792      36047.47       6724.9433      48.731617      2.3577398     -152150.73     -151117.9     
      1300   395.95476     -47202.878      6724.9433      48.731617      2.3577398     -152084.08     -151146.95    
      1400   384.93248      3825.0415      6724.9433      48.731617      2.3577398     -152118.27     -151207.22    
      1500   389.14874      34016.768      6724.9433      48.731617      2.3577398     -152155.7      -151234.68    
      1600   388.9796      -29571.061      6724.9433      48.731617      2.3577398     -152133.18     -151212.56    
      1700   396.82736      1247.5588      6724.9433      48.731617      2.3577398     -152104.84     -151165.65    
      1800   415.41612      61001.164      6724.9433      48.731617      2.3577398     -152110.48     -151127.29    
      1900   410.79284      10455.283      6724.9433      48.731617      2.3577398     -152119.44     -151147.19    
      2000   389.36373      10883.103      6724.9433      48.731617      2.3577398     -152128.15     -151206.61    
      2100   386.06275      40300.805      6724.9433      48.731617      2.3577398     -152157.92     -151244.2     
      2200   389.89776      47504.11       6724.9433      48.731617      2.3577398     -152163.29     -151240.5     
      2300   412.17612     -11357.767      6724.9433      48.731617      2.3577398     -152158.15     -151182.63    
      2400   402.73531      75354.918      6724.9433      48.731617      2.3577398     -152112.21     -151159.03    
      2500   408.6911       27123.104      6724.9433      48.731617      2.3577398     -152141.79     -151174.52    
      2600   405.58542      33274.718      6724.9433      48.731617      2.3577398     -152164.2      -151204.27    
      2700   375.90565     -3033.1518      6724.9433      48.731617      2.3577398     -152138.99     -151249.31    
      2800   390.17973      13237.086      6724.9433      48.731617      2.3577398     -152183.15     -151259.69    
      2900   398.12349      1443.7925      6724.9433      48.731617      2.3577398     -152130.46     -151188.2     
      3000   416.50489      25156.712      6724.9433      48.731617      2.3577398     -152137.78     -151152.02    
      3100   425.42112      44951.996      6724.9433      48.731617      2.3577398     -152168.05     -151161.18    
      3200   391.58615      16495.759      6724.9433      48.731617      2.3577398     -152135.26     -151208.47    
      3300   397.40519      29065.52       6724.9433      48.731617      2.3577398     -152172.03     -151231.47    
      3400   384.88652      44262.923      6724.9433      48.731617      2.3577398     -152129.88     -151218.95    
      3500   398.36461      10382.725      6724.9433      48.731617      2.3577398     -152083.46     -151140.63    
      3600   421.47399      10900.742      6724.9433      48.731617      2.3577398     -152124.49     -151126.96    
      3700   400.30995      16579.034      6724.9433      48.731617      2.3577398     -152119.61     -151172.17    
      3800   397.1994       60942.423      6724.9433      48.731617      2.3577398     -152144.69     -151204.61    
      3900   395.4301      -50183.117      6724.9433      48.731617      2.3577398     -152161.88     -151225.99    
      4000   404.68746      13747.078      6724.9433      48.731617      2.3577398     -152184.92     -151227.12    
      4100   407.42397      61364.296      6724.9433      48.731617      2.3577398     -152182.14     -151217.87    
      4200   395.07995      22891.86       6724.9433      48.731617      2.3577398     -152139.91     -151204.85    
      4300   405.63452      15770.088      6724.9433      48.731617      2.3577398     -152135.9      -151175.86    
      4400   422.44801      49541.986      6724.9433      48.731617      2.3577398     -152129.76     -151129.93    
      4500   420.39972      30861.015      6724.9433      48.731617      2.3577398     -152075.08     -151080.1     
      4600   431.99898     -1182.5924      6724.9433      48.731617      2.3577398     -152184.25     -151161.81    
      4700   432.37919     -12433.328      6724.9433      48.731617      2.3577398     -152251.47     -151228.13    
      4800   384.79374     -13429.284      6724.9433      48.731617      2.3577398     -152203.76     -151293.04    
      4900   399.51495      24043.982      6724.9433      48.731617      2.3577398     -152266.08     -151320.52    
      5000   391.51229      13451.116      6724.9433      48.731617      2.3577398     -152266.29     -151339.68    
      5100   380.73347      8336.4184      6724.9433      48.731617      2.3577398     -152227.03     -151325.93    
      5200   417.54885      18481.887      6724.9433      48.731617      2.3577398     -152249.54     -151261.31    
      5300   404.7416       41167.424      6724.9433      48.731617      2.3577398     -152210.32     -151252.39    
      5400   409.99776      42982.772      6724.9433      48.731617      2.3577398     -152251.54     -151281.17    
      5500   398.38324      11045.498      6724.9433      48.731617      2.3577398     -152253.42     -151310.54    
      5600   406.88539      14733.346      6724.9433      48.731617      2.3577398     -152283.23     -151320.23    
      5700   391.9283       32056.147      6724.9433      48.731617      2.3577398     -152245.15     -151317.55    
      5800   393.81372      3119.4121      6724.9433      48.731617      2.3577398     -152235.36     -151303.3     
      5900   413.26006      27005.851      6724.9433      48.731617      2.3577398     -152281.56     -151303.48    
      6000   369.56202      18268.18       6724.9433      48.731617      2.3577398     -152229.2      -151354.53    
      6100   375.68056      23079.184      6724.9433      48.731617      2.3577398     -152273.87     -151384.72    
      6200   387.0242       14481.44       6724.9433      48.731617      2.3577398     -152267.09     -151351.1     
      6300   399.96591      1937.1951      6724.9433      48.731617      2.3577398     -152235.49     -151288.86    
      6400   397.8329       15577.354      6724.9433      48.731617      2.3577398     -152229.92     -151288.34    
      6500   403.51496      14713.974      6724.9433      48.731617      2.3577398     -152238.18     -151283.15    
      6600   415.52408     -4651.1547      6724.9433      48.731617      2.3577398     -152251.08     -151267.63    
      6700   425.02316      44621.044      6724.9433      48.731617      2.3577398     -152242.66     -151236.73    
      6800   418.92882      46021.649      6724.9433      48.731617      2.3577398     -152228.3      -151236.8     
      6900   397.47708      23168.054      6724.9433      48.731617      2.3577398     -152242.78     -151302.04    
      7000   387.96473      8849.6712      6724.9433      48.731617      2.3577398     -152253.13     -151334.91    
      7100   391.65679      43306.705      6724.9433      48.731617      2.3577398     -152257.49     -151330.53    
      7200   394.16216     -5788.653       6724.9433      48.731617      2.3577398     -152242.5      -151309.61    
      7300   416.87981      25671.468      6724.9433      48.731617      2.3577398     -152237.77     -151251.12    
      7400   423.01213      45162.284      6724.9433      48.731617      2.3577398     -152221.38     -151220.21    
      7500   401.85975      24723.646      6724.9433      48.731617      2.3577398     -152216.55     -151265.45    
      7600   398.33326      41659.24       6724.9433      48.731617      2.3577398     -152258.89     -151316.13    
      7700   400.76925      32353.025      6724.9433      48.731617      2.3577398     -152260.65     -151312.12    
      7800   402.49257      14295.46       6724.9433      48.731617      2.3577398     -152246.79     -151294.19    
      7900   421.84162      8529.9828      6724.9433      48.731617      2.3577398     -152274.2      -151275.8     
      8000   404.69684      24854.623      6724.9433      48.731617      2.3577398     -152258.15     -151300.33    
      8100   385.80022     -7461.8573      6724.9433      48.731617      2.3577398     -152264.77     -151351.67    
      8200   385.3699      -166.63003      6724.9433      48.731617      2.3577398     -152270.99     -151358.91    
      8300   411.97127     -2075.1523      6724.9433      48.731617      2.3577398     -152275.01     -151299.98    
      8400   405.71575     -11812.799      6724.9433      48.731617      2.3577398     -152218.8      -151258.57    
      8500   408.48698      65510.312      6724.9433      48.731617      2.3577398     -152234.84     -151268.05    
      8600   396.36995     -33819.651      6724.9433      48.731617      2.3577398     -152241.42     -151303.31    
      8700   384.97405      42850.888      6724.9433      48.731617      2.3577398     -152257.24     -151346.1     
      8800   389.76086      5617.3765      6724.9433      48.731617      2.3577398     -152260.27     -151337.8     
      8900   403.63975      18088.441      6724.9433      48.731617      2.3577398     -152232.46     -151277.14    
      9000   408.64163      31328.884      6724.9433      48.731617      2.3577398     -152237.85     -151270.7     
      9100   404.50647      35541.851      6724.9433      48.731617      2.3577398     -152246        -151288.63    
      9200   392.50587      9057.9222      6724.9433      48.731617      2.3577398     -152233.59     -151304.62    
      9300   407.04545      5324.1796      6724.9433      48.731617      2.3577398     -152273.02     -151309.64    
      9400   392.9009       29074.146      6724.9433      48.731617      2.3577398     -152246.74     -151316.84    
      9500   394.00151      35020.423      6724.9433      48.731617      2.3577398     -152231.16     -151298.65    
      9600   415.93294      3928.0254      6724.9433      48.731617      2.3577398     -152235.46     -151251.04    
      9700   430.77953      23650.015      6724.9433      48.731617      2.3577398     -152259.38     -151239.83    
      9800   409.99749      3447.8252      6724.9433      48.731617      2.3577398     -152283.12     -151312.75    
      9900   399.87338      17234.233      6724.9433      48.731617      2.3577398     -152279.75     -151333.34    
     10000   383.52138      30947.696      6724.9433      48.731617      2.3577398     -152224.78     -151317.08    
     10100   410.27515      38320.954      6724.9433      48.731617      2.3577398     -152248.07     -151277.05    
     10200   404.67901      4787.3596      6724.9433      48.731617      2.3577398     -152200.79     -151243.01    
     10300   424.55363      22576.673      6724.9433      48.731617      2.3577398     -152202.01     -151197.19    
     10400   413.74192      33017.521      6724.9433      48.731617      2.3577398     -152185.84     -151206.61    
     10500   390.52929     -21722.471      6724.9433      48.731617      2.3577398     -152205.35     -151281.06    
     10600   388.74302      14034.524      6724.9433      48.731617      2.3577398     -152231.38     -151311.32    
     10700   391.33521      31850.597      6724.9433      48.731617      2.3577398     -152230.25     -151304.06    
     10800   401.9855      -40973.57       6724.9433      48.731617      2.3577398     -152226.09     -151274.68    
     10900   417.65246      20320.179      6724.9433      48.731617      2.3577398     -152236.99     -151248.5     
     11000   411.3007       24326.946      6724.9433      48.731617      2.3577398     -152235.92     -151262.47    
     11100   384.91094      10742.419      6724.9433      48.731617      2.3577398     -152237.26     -151326.27    
     11200   393.37389      1474.9194      6724.9433      48.731617      2.3577398     -152275.58     -151344.56    
     11300   419.47817      47181.712      6724.9433      48.731617      2.3577398     -152319.56     -151326.75    
     11400   406.42154      11582.602      6724.9433      48.731617      2.3577398     -152241.52     -151279.62    
     11500   414.67839      46065.724      6724.9433      48.731617      2.3577398     -152208.34     -151226.89    
     11600   398.57592      8074.6919      6724.9433      48.731617      2.3577398     -152201.78     -151258.44    
     11700   396.90584     -4901.7821      6724.9433      48.731617      2.3577398     -152241.41     -151302.03    
     11800   393.0523       34419.659      6724.9433      48.731617      2.3577398     -152252.25     -151321.99    
     11900   409.68646      4857.5138      6724.9433      48.731617      2.3577398     -152284.44     -151314.81    
     12000   426.34365      18525.505      6724.9433      48.731617      2.3577398     -152278.54     -151269.48    
     12100   426.61622      41568.281      6724.9433      48.731617      2.3577398     -152240.83     -151231.13    
     12200   392.79251      15369.302      6724.9433      48.731617      2.3577398     -152179.82     -151250.18    
     12300   393.33199      9878.9341      6724.9433      48.731617      2.3577398     -152253.66     -151322.74    
     12400   396.17364      27002.949      6724.9433      48.731617      2.3577398     -152267.44     -151329.79    
     12500   392.40688     -5866.1716      6724.9433      48.731617      2.3577398     -152256.61     -151327.87    
     12600   397.23874     -12520.237      6724.9433      48.731617      2.3577398     -152233.06     -151292.89    
     12700   410.84112      29744.177      6724.9433      48.731617      2.3577398     -152208.84     -151236.48    
     12800   420.06418      34289.886      6724.9433      48.731617      2.3577398     -152222.17     -151227.98    
     12900   400.04248      13173.479      6724.9433      48.731617      2.3577398     -152249.15     -151302.35    
     13000   393.80467      59109.239      6724.9433      48.731617      2.3577398     -152257.58     -151325.54    
     13100   403.64708      31197.476      6724.9433      48.731617      2.3577398     -152266.9      -151311.57    
     13200   402.65447     -31755.304      6724.9433      48.731617      2.3577398     -152248.68     -151295.69    
     13300   402.60838      41601.424      6724.9433      48.731617      2.3577398     -152219.01     -151266.13    
     13400   420.59878      80272.688      6724.9433      48.731617      2.3577398     -152259.72     -151264.26    
     13500   406.9477       56718.168      6724.9433      48.731617      2.3577398     -152270.11     -151306.96    
     13600   406.95681      23074.433      6724.9433      48.731617      2.3577398     -152306.39     -151343.21    
     13700   388.67191     -4203.3833      6724.9433      48.731617      2.3577398     -152265.89     -151346       
     13800   415.07059     -5712.4751      6724.9433      48.731617      2.3577398     -152253.3      -151270.93    
     13900   410.58871      54033.75       6724.9433      48.731617      2.3577398     -152216.8      -151245.03    
     14000   401.95591     -1629.0534      6724.9433      48.731617      2.3577398     -152223.83     -151272.5     
     14100   378.06416     -19349.033      6724.9433      48.731617      2.3577398     -152205.92     -151311.13    
     14200   402.17889      22111.461      6724.9433      48.731617      2.3577398     -152272.13     -151320.27    
     14300   393.6385       26542.569      6724.9433      48.731617      2.3577398     -152236.29     -151304.64    
     14400   407.13773      8350.7408      6724.9433      48.731617      2.3577398     -152233.73     -151270.13    
     14500   399.26686      24253.434      6724.9433      48.731617      2.3577398     -152200.61     -151255.64    
     14600   404.15305      35517.458      6724.9433      48.731617      2.3577398     -152231.1      -151274.57    
     14700   394.23339      9628.72        6724.9433      48.731617      2.3577398     -152260.92     -151327.86    
     14800   387.44986      42418.899      6724.9433      48.731617      2.3577398     -152269.31     -151352.31    
     14900   408.47185      4867.0942      6724.9433      48.731617      2.3577398     -152292.57     -151325.81    
     15000   408.03389      936.04541      6724.9433      48.731617      2.3577398     -152219.77     -151254.05    
     15100   431.12117      42323.861      6724.9433      48.731617      2.3577398     -152251.37     -151231.01    
     15200   397.97945      45813.553      6724.9433      48.731617      2.3577398     -152204.24     -151262.32    
     15300   410.9436       22324.127      6724.9433      48.731617      2.3577398     -152268.17     -151295.56    
     15400   392.63675     -16057.649      6724.9433      48.731617      2.3577398     -152269.97     -151340.69    
     15500   382.81769      34089.695      6724.9433      48.731617      2.3577398     -152251.22     -151345.18    
     15600   406.56909      16908.258      6724.9433      48.731617      2.3577398     -152249.6      -151287.34    
     15700   426.39559      1412.4501      6724.9433      48.731617      2.3577398     -152242.54     -151233.36    
     15800   392.85212      57836.606      6724.9433      48.731617      2.3577398     -152190.27     -151260.49    
     15900   386.83889      57070.583      6724.9433      48.731617      2.3577398     -152211.1      -151295.55    
     16000   410.38225      20976.811      6724.9433      48.731617      2.3577398     -152276.05     -151304.77    
     16100   404.7113      -10006.112      6724.9433      48.731617      2.3577398     -152276.54     -151318.68    
     16200   390.03674      28979.438      6724.9433      48.731617      2.3577398     -152281        -151357.87    
     16300   391.38888     -7149.6818      6724.9433      48.731617      2.3577398     -152290.47     -151364.15    
     16400   421.47743      16024.2        6724.9433      48.731617      2.3577398     -152297.26     -151299.72    
     16500   424.06292     -8021.8884      6724.9433      48.731617      2.3577398     -152281.68     -151278.02    
     16600   400.08093      39139.549      6724.9433      48.731617      2.3577398     -152232.24     -151285.34    
     16700   390.10417      35227.125      6724.9433      48.731617      2.3577398     -152253.49     -151330.21    
     16800   383.48291     -15016.391      6724.9433      48.731617      2.3577398     -152294.78     -151387.17    
     16900   394.93593      17490.109      6724.9433      48.731617      2.3577398     -152311.19     -151376.47    
     17000   391.01659      49583.609      6724.9433      48.731617      2.3577398     -152279.35     -151353.9     
     17100   391.61181      7301.206       6724.9433      48.731617      2.3577398     -152240.9      -151314.05    
     17200   406.36096     -24957.267      6724.9433      48.731617      2.3577398     -152251.48     -151289.72    
     17300   409.05366      59220.801      6724.9433      48.731617      2.3577398     -152256.29     -151288.16    
     17400   394.35277     -29057.849      6724.9433      48.731617      2.3577398     -152245.99     -151312.65    
     17500   377.43258     -48794.738      6724.9433      48.731617      2.3577398     -152268.25     -151374.96    
     17600   378.30103      29710.487      6724.9433      48.731617      2.3577398     -152277.74     -151382.39    
     17700   385.23874      19074.859      6724.9433      48.731617      2.3577398     -152243.23     -151331.46    
     17800   403.98077      6737           6724.9433      48.731617      2.3577398     -152246.05     -151289.92    
     17900   392.11494      47946.211      6724.9433      48.731617      2.3577398     -152228.04     -151300       
     18000   400.6843       3507.1977      6724.9433      48.731617      2.3577398     -152255.32     -151307       
     18100   389.41011      24039.426      6724.9433      48.731617      2.3577398     -152243.98     -151322.34    
     18200   389.3646       717.78433      6724.9433      48.731617      2.3577398     -152288.83     -151367.3     
     18300   393.02593      23696.519      6724.9433      48.731617      2.3577398     -152306.96     -151376.76    
     18400   403.71281      18382.909      6724.9433      48.731617      2.3577398     -152266.85     -151311.36    
     18500   409.86968     -58965.416      6724.9433      48.731617      2.3577398     -152247.55     -151277.48    
     18600   420.13698     -8859.6016      6724.9433      48.731617      2.3577398     -152273.66     -151279.29    
     18700   405.61012      69651.164      6724.9433      48.731617      2.3577398     -152278.59     -151318.61    
     18800   387.27857     -11187.244      6724.9433      48.731617      2.3577398     -152287.15     -151370.55    
     18900   370.44199      31581.997      6724.9433      48.731617      2.3577398     -152264        -151387.26    
     19000   377.34469      100984.01      6724.9433      48.731617      2.3577398     -152253.22     -151360.13    
     19100   395.16102     -15876.056      6724.9433      48.731617      2.3577398     -152265.9      -151330.65    
     19200   395.37024     -1634.8109      6724.9433      48.731617      2.3577398     -152233.61     -151297.86    
     19300   394.33787      4029.4833      6724.9433      48.731617      2.3577398     -152205.59     -151272.28    
     19400   405.68434      35410.043      6724.9433      48.731617      2.3577398     -152208.36     -151248.2     
     19500   432.4861      -447.93294      6724.9433      48.731617      2.3577398     -152238.6      -151215.01    
     19600   413.01836      49114.221      6724.9433      48.731617      2.3577398     -152233.57     -151256.05    
     19700   417.87268     -7344.1516      6724.9433      48.731617      2.3577398     -152294.13     -151305.12    
     19800   385.59254     -48571.083      6724.9433      48.731617      2.3577398     -152230.1      -151317.49    
     19900   388.00764      36981.295      6724.9433      48.731617      2.3577398     -152239.47     -151321.15    
     20000   405.25915      47097.848      6724.9433      48.731617      2.3577398     -152265.95     -151306.79    
     20100   424.9953      -48920.872      6724.9433      48.731617      2.3577398     -152264.35     -151258.48    
     20200   411.21653      6821.9984      6724.9433      48.731617      2.3577398     -152225.9      -151252.65    
     20300   391.40259      91253.273      6724.9433      48.731617      2.3577398     -152232.22     -151305.86    
     20400   400.17951      17239.48       6724.9433      48.731617      2.3577398     -152281.62     -151334.49    
     20500   409.95732     -5512.375       6724.9433      48.731617      2.3577398     -152307.37     -151337.1     
     20600   410.87841      6685.8826      6724.9433      48.731617      2.3577398     -152309.39     -151336.93    
     20700   394.97564      25612.231      6724.9433      48.731617      2.3577398     -152264.85     -151330.04    
     20800   392.10586     -5634.1948      6724.9433      48.731617      2.3577398     -152243.9      -151315.87    
     20900   397.31899      34263.94       6724.9433      48.731617      2.3577398     -152235.68     -151295.32    
     21000   401.40275      38584.022      6724.9433      48.731617      2.3577398     -152219.14     -151269.12    
     21100   417.7321       14127.909      6724.9433      48.731617      2.3577398     -152202.12     -151213.45    
     21200   421.2588      -3930.1255      6724.9433      48.731617      2.3577398     -152219.63     -151222.61    
     21300   401.94304      20802.564      6724.9433      48.731617      2.3577398     -152241.83     -151290.52    
     21400   401.28523      39534.919      6724.9433      48.731617      2.3577398     -152263.12     -151313.37    
     21500   410.97539      1319.9479      6724.9433      48.731617      2.3577398     -152296.59     -151323.91    
     21600   402.90863      10803.28       6724.9433      48.731617      2.3577398     -152271.61     -151318.02    
     21700   406.38225      4738.9846      6724.9433      48.731617      2.3577398     -152245.25     -151283.44    
     21800   415.61772      22657.832      6724.9433      48.731617      2.3577398     -152235.84     -151252.17    
     21900   410.47384      10842.209      6724.9433      48.731617      2.3577398     -152239.97     -151268.47    
     22000   405.84719     -17324.61       6724.9433      48.731617      2.3577398     -152296.6      -151336.06    
     22100   394.69588      52385.049      6724.9433      48.731617      2.3577398     -152272.63     -151338.48    
     22200   406.51442     -1019.0865      6724.9433      48.731617      2.3577398     -152279.17     -151317.05    
     22300   398.49777      11757.84       6724.9433      48.731617      2.3577398     -152226.47     -151283.32    
     22400   411.60973      33752.412      6724.9433      48.731617      2.3577398     -152196.23     -151222.04    
     22500   412.2986      -5853.2195      6724.9433      48.731617      2.3577398     -152208.89     -151233.08    
     22600   395.29014      19948.354      6724.9433      48.731617      2.3577398     -152249.89     -151314.33    
     22700   394.77038     -25594.022      6724.9433      48.731617      2.3577398     -152259.59     -151325.26    
     22800   387.69106      25071.456      6724.9433      48.731617      2.3577398     -152246.41     -151328.84    
     22900   401.1109      -11143.353      6724.9433      48.731617      2.3577398     -152284.67     -151335.34    
     23000   387.81155     -29801.216      6724.9433      48.731617      2.3577398     -152268.62     -151350.76    
     23100   384.912        23102.861      6724.9433      48.731617      2.3577398     -152272.45     -151361.45    
     23200   377.44422      4101.8674      6724.9433      48.731617      2.3577398     -152212.39     -151319.06    
     23300   411.05319      9461.1783      6724.9433      48.731617      2.3577398     -152240.65     -151267.79    
     23400   408.45829      32405.302      6724.9433      48.731617      2.3577398     -152250.91     -151284.18    
     23500   405.3368       19004.978      6724.9433      48.731617      2.3577398     -152287.34     -151328.01    
     23600   401.97032      42912.773      6724.9433      48.731617      2.3577398     -152297.47     -151346.1     
     23700   404.29079      22034.403      6724.9433      48.731617      2.3577398     -152296.65     -151339.79    
     23800   404.24142      26229.564      6724.9433      48.731617      2.3577398     -152209.45     -151252.71    
     23900   406.58383      18284.463      6724.9433      48.731617      2.3577398     -152200.87     -151238.58    
     24000   397.10991      25173.138      6724.9433      48.731617      2.3577398     -152231.34     -151291.48    
     24100   391.97882      14248.134      6724.9433      48.731617      2.3577398     -152261.38     -151333.65    
     24200   397.15015      5859.0091      6724.9433      48.731617      2.3577398     -152276.72     -151336.76    
     24300   400.42281      29148.956      6724.9433      48.731617      2.3577398     -152247.46     -151299.75    
     24400   418.15674     -20354.016      6724.9433      48.731617      2.3577398     -152222.9      -151233.22    
     24500   411.03901      36397.419      6724.9433      48.731617      2.3577398     -152207.55     -151234.72    
     24600   404.76722      6320.0316      6724.9433      48.731617      2.3577398     -152220.91     -151262.92    
     24700   404.43911     -39160.164      6724.9433      48.731617      2.3577398     -152258.71     -151301.5     
     24800   394.94318      63771.396      6724.9433      48.731617      2.3577398     -152263.98     -151329.24    
     24900   379.46105      24385.734      6724.9433      48.731617      2.3577398     -152247.11     -151349.02    
     25000   402.04691     -42158.186      6724.9433      48.731617      2.3577398     -152293.34     -151341.79    
     25100   410.75954      74076.442      6724.9433      48.731617      2.3577398     -152245.55     -151273.37    
     25200   408.24187      13579.451      6724.9433      48.731617      2.3577398     -152219.99     -151253.77    
     25300   414.25296      50587.445      6724.9433      48.731617      2.3577398     -152264.73     -151284.29    
     25400   394.9615      -960.80655      6724.9433      48.731617      2.3577398     -152277.34     -151342.56    
     25500   392.70141     -9066.9846      6724.9433      48.731617      2.3577398     -152270.54     -151341.11    
     25600   401.90128      30454.056      6724.9433      48.731617      2.3577398     -152258.76     -151307.55    
     25700   404.64514     -9951.7276      6724.9433      48.731617      2.3577398     -152248.13     -151290.44    
     25800   394.70229     -2322.5928      6724.9433      48.731617      2.3577398     -152238.73     -151304.57    
     25900   380.69261      38110.325      6724.9433      48.731617      2.3577398     -152284.45     -151383.44    
     26000   378.72448     -12297.048      6724.9433      48.731617      2.3577398     -152276.28     -151379.93    
     26100   405.46022      25805.789      6724.9433      48.731617      2.3577398     -152293.54     -151333.91    
     26200   401.83269      8560.1792      6724.9433      48.731617      2.3577398     -152255.45     -151304.41    
     26300   394.57972      9960.3286      6724.9433      48.731617      2.3577398     -152228.96     -151295.09    
     26400   390.62798      16532.515      6724.9433      48.731617      2.3577398     -152232.12     -151307.59    
     26500   388.99178      55046.121      6724.9433      48.731617      2.3577398     -152236.84     -151316.19    
     26600   386.00477      30066.634      6724.9433      48.731617      2.3577398     -152228.91     -151315.33    
     26700   407.62135     -24696.749      6724.9433      48.731617      2.3577398     -152280.73     -151315.99    
     26800   398.79887      7599.5205      6724.9433      48.731617      2.3577398     -152281.79     -151337.92    
     26900   380.87727      30853.442      6724.9433      48.731617      2.3577398     -152264.99     -151363.54    
     27000   385.41581     -26942.064      6724.9433      48.731617      2.3577398     -152287.27     -151375.08    
     27100   386.45336      17887.574      6724.9433      48.731617      2.3577398     -152251.49     -151336.84    
     27200   413.50429      60905.918      6724.9433      48.731617      2.3577398     -152258.38     -151279.72    
     27300   407.34506     -62316.924      6724.9433      48.731617      2.3577398     -152235.35     -151271.26    
     27400   387.53437     -17815.125      6724.9433      48.731617      2.3577398     -152222.49     -151305.29    
     27500   388.10713      23763.276      6724.9433      48.731617      2.3577398     -152278        -151359.44    
     27600   384.28857     -21174.491      6724.9433      48.731617      2.3577398     -152281.17     -151371.65    
     27700   399.9796      -9690.9807      6724.9433      48.731617      2.3577398     -152290.42     -151343.77    
     27800   387.59423      75991.598      6724.9433      48.731617      2.3577398     -152249.1      -151331.75    
     27900   394.24955      10569.717      6724.9433      48.731617      2.3577398     -152233.34     -151300.24    
     28000   400.66195      18447.66       6724.9433      48.731617      2.3577398     -152216.98     -151268.71    
     28100   413.1887       35318.328      6724.9433      48.731617      2.3577398     -152254.84     -151276.92    
     28200   401.19679      37759.169      6724.9433      48.731617      2.3577398     -152289.31     -151339.78    
     28300   384.05027     -25342.256      6724.9433      48.731617      2.3577398     -152275.3      -151366.34    
     28400   392.51251      6976.9256      6724.9433      48.731617      2.3577398     -152276.67     -151347.69    
     28500   413.17352      5801.1703      6724.9433      48.731617      2.3577398     -152295.34     -151317.46    
     28600   400.8351       20944.143      6724.9433      48.731617      2.3577398     -152256.78     -151308.1     
     28700   404.21575      20389.187      6724.9433      48.731617      2.3577398     -152264.87     -151308.19    
     28800   395.88402      6925.2071      6724.9433      48.731617      2.3577398     -152231.35     -151294.38    
     28900   399.8655      -23593.362      6724.9433      48.731617      2.3577398     -152234.4      -151288.01    
     29000   401.79847     -5035.1524      6724.9433      48.731617      2.3577398     -152255.61     -151304.65    
     29100   395.38455      15582.208      6724.9433      48.731617      2.3577398     -152274.33     -151338.55    
     29200   398.47173      72899.133      6724.9433      48.731617      2.3577398     -152283.15     -151340.06    
     29300   405.33346     -8598.9112      6724.9433      48.731617      2.3577398     -152248.37     -151289.04    
     29400   405.69032      28323.361      6724.9433      48.731617      2.3577398     -152228.89     -151268.72    
     29500   429.64833      30428.545      6724.9433      48.731617      2.3577398     -152304.26     -151287.39    
     29600   398.8999       25259.702      6724.9433      48.731617      2.3577398     -152301.61     -151357.5     
     29700   400.17888     -10484.154      6724.9433      48.731617      2.3577398     -152310.22     -151363.09    
     29800   416.50279      25808.625      6724.9433      48.731617      2.3577398     -152328.28     -151342.51    
     29900   391.52903     -17844.607      6724.9433      48.731617      2.3577398     -152240.32     -151313.66    
     30000   403.24526      30796.336      6724.9433      48.731617      2.3577398     -152234.07     -151279.69    
     30100   389.85921      27069.23       6724.9433      48.731617      2.3577398     -152206.91     -151284.21    
     30200   396.75557     -6511.464       6724.9433      48.731617      2.3577398     -152286.87     -151347.85    
     30300   395.66754      48030.013      6724.9433      48.731617      2.3577398     -152299.84     -151363.39    
     30400   400.47652     -2740.7863      6724.9433      48.731617      2.3577398     -152269        -151321.17    
     30500   414.37265     -16289.157      6724.9433      48.731617      2.3577398     -152268.82     -151288.09    
     30600   418.60016      38566.934      6724.9433      48.731617      2.3577398     -152280.06     -151289.33    
     30700   399.34075      17353.146      6724.9433      48.731617      2.3577398     -152253.85     -151308.7     
     30800   393.99496     -32601.395      6724.9433      48.731617      2.3577398     -152245.65     -151313.15    
     30900   400.11181      16351.074      6724.9433      48.731617      2.3577398     -152274.9      -151327.93    
     31000   403.98854      44605.307      6724.9433      48.731617      2.3577398     -152300.62     -151344.48    
     31100   404.44986      68559.203      6724.9433      48.731617      2.3577398     -152260.93     -151303.69    
     31200   415.70097     -7099.3006      6724.9433      48.731617      2.3577398     -152235.92     -151252.05    
     31300   414.29957      11018.467      6724.9433      48.731617      2.3577398     -152257.44     -151276.89    
     31400   393.45517      51274.984      6724.9433      48.731617      2.3577398     -152240.21     -151309       
     31500   403.33889      1172.2922      6724.9433      48.731617      2.3577398     -152276.08     -151321.48    
     31600   386.32393      37779.181      6724.9433      48.731617      2.3577398     -152232.21     -151317.88    
     31700   390.60486      5927.4759      6724.9433      48.731617      2.3577398     -152228.51     -151304.04    
     31800   394.61878      6214.8697      6724.9433      48.731617      2.3577398     -152207.35     -151273.38    
     31900   412.5938      -17412.145      6724.9433      48.731617      2.3577398     -152245.26     -151268.74    
     32000   386.62759      15977.962      6724.9433      48.731617      2.3577398     -152231.4      -151316.35    
     32100   399.59594      3294.6038      6724.9433      48.731617      2.3577398     -152288.36     -151342.61    
     32200   398.13764     -10062.559      6724.9433      48.731617      2.3577398     -152310.66     -151368.37    
     32300   371.33551      15868.371      6724.9433      48.731617      2.3577398     -152298.96     -151420.09    
     32400   379.70745      33441.407      6724.9433      48.731617      2.3577398     -152302.06     -151403.38    
     32500   397.96545      16810.723      6724.9433      48.731617      2.3577398     -152273.86     -151331.97    
     32600   407.73693      11821.064      6724.9433      48.731617      2.3577398     -152273        -151307.99    
     32700   389.26471      28619.699      6724.9433      48.731617      2.3577398     -152222.86     -151301.56    
     32800   408.26428      3639.2523      6724.9433      48.731617      2.3577398     -152256.19     -151289.93    
     32900   398.86248     -29095.992      6724.9433      48.731617      2.3577398     -152269.28     -151325.27    
     33000   382.55377      46848.229      6724.9433      48.731617      2.3577398     -152287.22     -151381.81    
     33100   391.47333      13421.193      6724.9433      48.731617      2.3577398     -152293.13     -151366.61    
     33200   415.97518      25807.02       6724.9433      48.731617      2.3577398     -152297.28     -151312.76    
     33300   399.01916      10172.903      6724.9433      48.731617      2.3577398     -152253.62     -151309.24    
     33400   412.64119      17696.769      6724.9433      48.731617      2.3577398     -152290.4      -151313.77    
     33500   390.71805      10251.234      6724.9433      48.731617      2.3577398     -152254.02     -151329.28    
     33600   401.05458      24904.726      6724.9433      48.731617      2.3577398     -152242.53     -151293.32    
     33700   409.73977     -3838.3002      6724.9433      48.731617      2.3577398     -152206.16     -151236.4     
     33800   405.18395      50783.284      6724.9433      48.731617      2.3577398     -152193.32     -151234.35    
     33900   394.02847     -68751.516      6724.9433      48.731617      2.3577398     -152233.73     -151301.16    
     34000   395.89757      14963.997      6724.9433      48.731617      2.3577398     -152254.37     -151317.37    
     34100   386.2461       32697.785      6724.9433      48.731617      2.3577398     -152227        -151312.85    
     34200   395.08224      6148.8705      6724.9433      48.731617      2.3577398     -152230.31     -151295.25    
     34300   400.15725     -18059.96       6724.9433      48.731617      2.3577398     -152228.82     -151281.75    
     34400   403.71786      17558.446      6724.9433      48.731617      2.3577398     -152271.85     -151316.34    
     34500   383.88769      4236.125       6724.9433      48.731617      2.3577398     -152276.99     -151368.42    
     34600   405.46005      7228.7         6724.9433      48.731617      2.3577398     -152306.93     -151347.3     
     34700   399.89991      28994.474      6724.9433      48.731617      2.3577398     -152256.62     -151310.15    
     34800   395.67987      15610.412      6724.9433      48.731617      2.3577398     -152206.72     -151270.24    
     34900   393.64787      34474.569      6724.9433      48.731617      2.3577398     -152195.97     -151264.3     
     35000   386.04824      7451.3219      6724.9433      48.731617      2.3577398     -152239.95     -151326.27    
     35100   393.32814      32683.426      6724.9433      48.731617      2.3577398     -152289.47     -151358.55    
     35200   393.91214     -10054.589      6724.9433      48.731617      2.3577398     -152275.74     -151343.44    
     35300   411.43925     -29059.547      6724.9433      48.731617      2.3577398     -152293.33     -151319.55    
     35400   414.44341      68090.108      6724.9433      48.731617      2.3577398     -152256.26     -151275.37    
     35500   423.4134       25275.296      6724.9433      48.731617      2.3577398     -152232.39     -151230.27    
     35600   423.92689     -12931.653      6724.9433      48.731617      2.3577398     -152244.95     -151241.62    
     35700   416.69819      31868.84       6724.9433      48.731617      2.3577398     -152270.42     -151284.19    
     35800   400.20196      20533.836      6724.9433      48.731617      2.3577398     -152254.24     -151307.06    
     35900   402.14957      26454.57       6724.9433      48.731617      2.3577398     -152279.86     -151328.07    
     36000   376.53367     -6459.9497      6724.9433      48.731617      2.3577398     -152238.35     -151347.18    
     36100   403.89816      57081.628      6724.9433      48.731617      2.3577398     -152268.01     -151312.08    
     36200   405.53257     -19937.601      6724.9433      48.731617      2.3577398     -152217.46     -151257.66    
     36300   412.93878      7.6756368      6724.9433      48.731617      2.3577398     -152236.07     -151258.75    
     36400   399.51115      75201.652      6724.9433      48.731617      2.3577398     -152261.14     -151315.59    
     36500   390.27842      18451.03       6724.9433      48.731617      2.3577398     -152276.76     -151353.06    
     36600   393.75646     -9715.1605      6724.9433      48.731617      2.3577398     -152273.43     -151341.51    
     36700   387.63507      56288.516      6724.9433      48.731617      2.3577398     -152240.07     -151322.63    
     36800   416.63685      29410.094      6724.9433      48.731617      2.3577398     -152269.11     -151283.03    
     36900   425.65177     -31739.909      6724.9433      48.731617      2.3577398     -152252.23     -151244.81    
     37000   409.39966      61587.878      6724.9433      48.731617      2.3577398     -152203.43     -151234.48    
     37100   390.99506      14016.094      6724.9433      48.731617      2.3577398     -152238.9      -151313.51    
     37200   389.689       -36246.15       6724.9433      48.731617      2.3577398     -152264        -151341.7     
     37300   403.53782      20514.865      6724.9433      48.731617      2.3577398     -152298.89     -151343.81    
     37400   406.65246      32808.344      6724.9433      48.731617      2.3577398     -152289.73     -151327.28    
     37500   411.77445     -39460.705      6724.9433      48.731617      2.3577398     -152248.11     -151273.54    
     37600   410.6543       98020.921      6724.9433      48.731617      2.3577398     -152227.64     -151255.72    
     37700   392.14673      13147.235      6724.9433      48.731617      2.3577398     -152238.8      -151310.68    
     37800   388.96746      47613.804      6724.9433      48.731617      2.3577398     -152275.27     -151354.68    
     37900   388.29861      65730.423      6724.9433      48.731617      2.3577398     -152263.42     -151344.41    
     38000   383.5042      -21325.007      6724.9433      48.731617      2.3577398     -152231.29     -151323.62    
     38100   399.98079      4502.1202      6724.9433      48.731617      2.3577398     -152261.82     -151315.16    
     38200   395.18187      11751.103      6724.9433      48.731617      2.3577398     -152253.84     -151318.54    
     38300   388.63974      27230.124      6724.9433      48.731617      2.3577398     -152233.33     -151313.51    
     38400   403.76757      15435.664      6724.9433      48.731617      2.3577398     -152257.52     -151301.9     
     38500   380.92221      22501.19       6724.9433      48.731617      2.3577398     -152215.16     -151313.6     
     38600   402.49676      1836.3047      6724.9433      48.731617      2.3577398     -152284.83     -151332.21    
     38700   395.4831       27216.351      6724.9433      48.731617      2.3577398     -152310.66     -151374.65    
     38800   390.02282     -25025.154      6724.9433      48.731617      2.3577398     -152314.55     -151391.46    
     38900   390.01613      16113.929      6724.9433      48.731617      2.3577398     -152248.26     -151325.18    
     39000   403.8217      -10503.716      6724.9433      48.731617      2.3577398     -152238        -151282.25    
     39100   390.68646      9398.7176      6724.9433      48.731617      2.3577398     -152207.1      -151282.44    
     39200   400.22393      25168.424      6724.9433      48.731617      2.3577398     -152243.44     -151296.21    
     39300   397.30609      12001.542      6724.9433      48.731617      2.3577398     -152286.07     -151345.74    
     39400   394.68409      4380.3168      6724.9433      48.731617      2.3577398     -152312.66     -151378.53    
     39500   390.61414      43442.721      6724.9433      48.731617      2.3577398     -152287.33     -151362.84    
     39600   407.61109      24830.42       6724.9433      48.731617      2.3577398     -152242.63     -151277.91    
     39700   409.90144      5902.2182      6724.9433      48.731617      2.3577398     -152227.66     -151257.52    
     39800   397.71806      14537.086      6724.9433      48.731617      2.3577398     -152228.07     -151286.76    
     39900   391.17902      36221.769      6724.9433      48.731617      2.3577398     -152260.43     -151334.61    
     40000   382.30495      13638.687      6724.9433      48.731617      2.3577398     -152264.46     -151359.63    
     40100   403.97581      37772.287      6724.9433      48.731617      2.3577398     -152295.62     -151339.51    
     40200   407.54572      27024.309      6724.9433      48.731617      2.3577398     -152235.96     -151271.39    
     40300   419.88861      15608.233      6724.9433      48.731617      2.3577398     -152206.91     -151213.13    
     40400   411.61491      31314.342      6724.9433      48.731617      2.3577398     -152233.99     -151259.8     
     40500   404.90413      10765.568      6724.9433      48.731617      2.3577398     -152270.36     -151312.05    
     40600   387.18649      21468.327      6724.9433      48.731617      2.3577398     -152253.1      -151336.72    
     40700   392.35398      37216.72       6724.9433      48.731617      2.3577398     -152258.36     -151329.75    
     40800   421.96438     -4019.3558      6724.9433      48.731617      2.3577398     -152279.14     -151280.45    
     40900   397.90865      20542.698      6724.9433      48.731617      2.3577398     -152173.85     -151232.09    
     41000   414.4243      -13406.233      6724.9433      48.731617      2.3577398     -152243.19     -151262.35    
     41100   391.28484      20005.496      6724.9433      48.731617      2.3577398     -152236.1      -151310.03    
     41200   404.81357      15155.409      6724.9433      48.731617      2.3577398     -152271.49     -151313.4     
     41300   402.72065      6040.9639      6724.9433      48.731617      2.3577398     -152270.95     -151317.81    
     41400   392.62796      38185.503      6724.9433      48.731617      2.3577398     -152256.68     -151327.42    
     41500   407.64301      70121.041      6724.9433      48.731617      2.3577398     -152307.69     -151342.89    
     41600   395.70714      19766.172      6724.9433      48.731617      2.3577398     -152293.05     -151356.51    
     41700   414.41302      5758.5186      6724.9433      48.731617      2.3577398     -152311.62     -151330.8     
     41800   399.60577      30063.427      6724.9433      48.731617      2.3577398     -152223.84     -151278.07    
     41900   422.63804      66935.67       6724.9433      48.731617      2.3577398     -152264.69     -151264.4     
     42000   402.49341      4812.5319      6724.9433      48.731617      2.3577398     -152261.17     -151308.56    
     42100   393.40151      10519.045      6724.9433      48.731617      2.3577398     -152264.23     -151333.15    
     42200   407.3045       66871.835      6724.9433      48.731617      2.3577398     -152305.4      -151341.41    
     42300   391.48888     -5002.9811      6724.9433      48.731617      2.3577398     -152261.64     -151335.08    
     42400   412.12496      9517.0411      6724.9433      48.731617      2.3577398     -152270.28     -151294.88    
     42500   419.56189      18317.92       6724.9433      48.731617      2.3577398     -152228.98     -151235.98    
     42600   419.77624     -16829.537      6724.9433      48.731617      2.3577398     -152249.55     -151256.04    
     42700   385.41119      12170.706      6724.9433      48.731617      2.3577398     -152245.35     -151333.17    
     42800   399.55097      33308.527      6724.9433      48.731617      2.3577398     -152287.85     -151342.21    
     42900   403.51117      57256.409      6724.9433      48.731617      2.3577398     -152292.24     -151337.22    
     43000   404.78064      6500.1291      6724.9433      48.731617      2.3577398     -152269.36     -151311.34    
     43100   413.10661      8675.72        6724.9433      48.731617      2.3577398     -152241.33     -151263.6     
     43200   418.65198      19759.474      6724.9433      48.731617      2.3577398     -152229.27     -151238.42    
     43300   408.82538      15390.943      6724.9433      48.731617      2.3577398     -152283.18     -151315.59    
     43400   391.20835      13196.02       6724.9433      48.731617      2.3577398     -152279.93     -151354.04    
     43500   402.29935      33937.004      6724.9433      48.731617      2.3577398     -152281.31     -151329.16    
     43600   399.51537      32497.943      6724.9433      48.731617      2.3577398     -152235.74     -151290.19    
     43700   412.97031      5209.461       6724.9433      48.731617      2.3577398     -152238.91     -151261.5     
     43800   414.03956      19813.354      6724.9433      48.731617      2.3577398     -152266.04     -151286.1     
     43900   383.18349      24455.491      6724.9433      48.731617      2.3577398     -152272.31     -151365.41    
     44000   385.75698     -3665.4813      6724.9433      48.731617      2.3577398     -152260.67     -151347.67    
     44100   410.66659     -14996.183      6724.9433      48.731617      2.3577398     -152280.99     -151309.04    
     44200   412.67587      27883.652      6724.9433      48.731617      2.3577398     -152262.92     -151286.22    
     44300   424.6211       31474.136      6724.9433      48.731617      2.3577398     -152287.77     -151282.79    
     44400   389.99452     -28573.531      6724.9433      48.731617      2.3577398     -152256.12     -151333.1     
     44500   404.90298      54674.881      6724.9433      48.731617      2.3577398     -152325.31     -151367       
     44600   390.59964      5307.0125      6724.9433      48.731617      2.3577398     -152285.31     -151360.85    
     44700   400.72354     -39633.562      6724.9433      48.731617      2.3577398     -152252.31     -151303.9     
     44800   414.07717      4005.9049      6724.9433      48.731617      2.3577398     -152246.6      -151266.58    
     44900   403.93887      62121.745      6724.9433      48.731617      2.3577398     -152238.31     -151282.28    
     45000   379.97649      17623.756      6724.9433      48.731617      2.3577398     -152268.44     -151369.12    
     45100   397.45362     -5650.2491      6724.9433      48.731617      2.3577398     -152302.5      -151361.82    
     45200   414.64515      34528.533      6724.9433      48.731617      2.3577398     -152304.52     -151323.16    
     45300   426.7549       26618.391      6724.9433      48.731617      2.3577398     -152292.01     -151281.98    
     45400   412.78687      19984.341      6724.9433      48.731617      2.3577398     -152259.95     -151282.99    
     45500   396.32294      7975.4541      6724.9433      48.731617      2.3577398     -152281.09     -151343.09    
     45600   379.74282      71924.162      6724.9433      48.731617      2.3577398     -152263.15     -151364.39    
     45700   384.26481     -26795.265      6724.9433      48.731617      2.3577398     -152264.98     -151355.52    
     45800   386.76374      27253.021      6724.9433      48.731617      2.3577398     -152253.76     -151338.39    
     45900   388.44982      12377.111      6724.9433      48.731617      2.3577398     -152228.52     -151309.15    
     46000   414.49965     -25025.038      6724.9433      48.731617      2.3577398     -152263.95     -151282.93    
     46100   413.29475      55822.873      6724.9433      48.731617      2.3577398     -152276.59     -151298.41    
     46200   383.19185     -13406.125      6724.9433      48.731617      2.3577398     -152245.5      -151338.57    
     46300   379.79257      56194.92       6724.9433      48.731617      2.3577398     -152258.42     -151359.55    
     46400   408.20152      23608.98       6724.9433      48.731617      2.3577398     -152290.54     -151324.42    
     46500   411.59642     -3203.4351      6724.9433      48.731617      2.3577398     -152243.99     -151269.84    
     46600   408.48367      46797.857      6724.9433      48.731617      2.3577398     -152236.47     -151269.69    
     46700   399.14492      15756.725      6724.9433      48.731617      2.3577398     -152230.95     -151286.27    
     46800   414.4564      -10486.044      6724.9433      48.731617      2.3577398     -152288.17     -151307.25    
     46900   393.37645      50740.992      6724.9433      48.731617      2.3577398     -152274.37     -151343.34    
     47000   397.57496      19625.838      6724.9433      48.731617      2.3577398     -152283.19     -151342.22    
     47100   400.18404     -25930.902      6724.9433      48.731617      2.3577398     -152273.21     -151326.07    
     47200   408.22489      15756.44       6724.9433      48.731617      2.3577398     -152280.89     -151314.72    
     47300   412.83073     -24550.141      6724.9433      48.731617      2.3577398     -152292.27     -151315.2     
     47400   399.02133      30264.384      6724.9433      48.731617      2.3577398     -152272.73     -151328.34    
     47500   392.6627       95411.515      6724.9433      48.731617      2.3577398     -152254.68     -151325.34    
     47600   389.42872      10598.096      6724.9433      48.731617      2.3577398     -152230.99     -151309.3     
     47700   423.17496     -36878.345      6724.9433      48.731617      2.3577398     -152283.19     -151281.64    
     47800   403.60994      38123.44       6724.9433      48.731617      2.3577398     -152241.41     -151286.16    
     47900   396.05029      78111.865      6724.9433      48.731617      2.3577398     -152272.81     -151335.46    
     48000   404.39079      2319.488       6724.9433      48.731617      2.3577398     -152319.26     -151362.16    
     48100   388.60866     -28733.161      6724.9433      48.731617      2.3577398     -152301.12     -151381.37    
     48200   403.43541      74342.346      6724.9433      48.731617      2.3577398     -152297.63     -151342.79    
     48300   406.67549      9830.5904      6724.9433      48.731617      2.3577398     -152236.43     -151273.93    
     48400   413.72782      4449.1504      6724.9433      48.731617      2.3577398     -152258.65     -151279.46    
     48500   406.57539      8289.8865      6724.9433      48.731617      2.3577398     -152286.19     -151323.92    
     48600   386.49551      30138.686      6724.9433      48.731617      2.3577398     -152258.04     -151343.3     
     48700   404.26845      6199.359       6724.9433      48.731617      2.3577398     -152287.12     -151330.31    
     48800   401.21375     -245.07456      6724.9433      48.731617      2.3577398     -152274.15     -151324.57    
     48900   391.69613     -12409.663      6724.9433      48.731617      2.3577398     -152257.29     -151330.23    
     49000   390.06323      109029.05      6724.9433      48.731617      2.3577398     -152247.03     -151323.85    
     49100   399.50119      14152.498      6724.9433      48.731617      2.3577398     -152250.55     -151305.03    
     49200   409.49513     -4850.0694      6724.9433      48.731617      2.3577398     -152236.61     -151267.43    
     49300   412.65527      35162.896      6724.9433      48.731617      2.3577398     -152219.78     -151243.12    
     49400   416.64609      19467.769      6724.9433      48.731617      2.3577398     -152274.91     -151288.81    
     49500   402.88662     -25779.393      6724.9433      48.731617      2.3577398     -152298.93     -151345.4     
     49600   408.11249      47758.497      6724.9433      48.731617      2.3577398     -152317.23     -151351.33    
     49700   400.76965      23065.366      6724.9433      48.731617      2.3577398     -152291.48     -151342.95    
     49800   398.60837      19882.257      6724.9433      48.731617      2.3577398     -152239.67     -151296.26    
     49900   430.65336      29523.895      6724.9433      48.731617      2.3577398     -152265.19     -151245.93    
     50000   414.51372      18251.372      6724.9433      48.731617      2.3577398     -152257.95     -151276.89    
     50100   412.43878      63644.029      6724.9433      48.731617      2.3577398     -152318.25     -151342.11    
     50200   408.9013       44273.09       6724.9433      48.731617      2.3577398     -152317.04     -151349.27    
     50300   393.79334      26157.724      6724.9433      48.731617      2.3577398     -152279.19     -151347.18    
     50400   409.50731      10296.932      6724.9433      48.731617      2.3577398     -152300.64     -151331.43    
     50500   399.17497      23607.872      6724.9433      48.731617      2.3577398     -152233.17     -151288.42    
     50600   414.19627      685.55476      6724.9433      48.731617      2.3577398     -152227.37     -151247.07    
     50700   419.37698      60950.891      6724.9433      48.731617      2.3577398     -152269.72     -151277.16    
     50800   379.38801      26025.128      6724.9433      48.731617      2.3577398     -152255.42     -151357.5     
     50900   391.99268      40768.013      6724.9433      48.731617      2.3577398     -152279.66     -151351.9     
     51000   381.70077      28568.72       6724.9433      48.731617      2.3577398     -152237.6      -151334.2     
     51100   404.6595       66345.857      6724.9433      48.731617      2.3577398     -152257.46     -151299.73    
     51200   410.49951      3273.5429      6724.9433      48.731617      2.3577398     -152243.41     -151271.86    
     51300   394.47967      8020.6997      6724.9433      48.731617      2.3577398     -152225.97     -151292.33    
     51400   399.12928      58335.263      6724.9433      48.731617      2.3577398     -152301.24     -151356.6     
     51500   386.36759      31898.972      6724.9433      48.731617      2.3577398     -152274.43     -151359.99    
     51600   391.39306      29707.148      6724.9433      48.731617      2.3577398     -152256.03     -151329.7     
     51700   418.75575     -15924.23       6724.9433      48.731617      2.3577398     -152268.58     -151277.48    
     51800   402.59368      41076.493      6724.9433      48.731617      2.3577398     -152239.8      -151286.96    
     51900   395.88208      4803.0187      6724.9433      48.731617      2.3577398     -152322.42     -151385.46    
     52000   396.17302      12573.706      6724.9433      48.731617      2.3577398     -152329.16     -151391.51    
     52100   391.93506     -52738.606      6724.9433      48.731617      2.3577398     -152275.3      -151347.69    
     52200   406.16023      46576.505      6724.9433      48.731617      2.3577398     -152252.78     -151291.49    
     52300   407.76974      19895.775      6724.9433      48.731617      2.3577398     -152239.92     -151274.83    
     52400   424.1414       14906.202      6724.9433      48.731617      2.3577398     -152301.34     -151297.5     
     52500   387.86803     -7131.8241      6724.9433      48.731617      2.3577398     -152283.1      -151365.11    
     52600   385.67869      43883.463      6724.9433      48.731617      2.3577398     -152270.76     -151357.95    
     52700   402.34888      11631.743      6724.9433      48.731617      2.3577398     -152277.81     -151325.54    
     52800   412.89718      13731.189      6724.9433      48.731617      2.3577398     -152279.59     -151302.36    
     52900   411.15209      40792.97       6724.9433      48.731617      2.3577398     -152224.34     -151251.24    
     53000   437.05497      14897.073      6724.9433      48.731617      2.3577398     -152243.94     -151209.53    
     53100   420.36199     -15896.176      6724.9433      48.731617      2.3577398     -152262.31     -151267.41    
     53200   398.95966      26157.179      6724.9433      48.731617      2.3577398     -152264.2      -151319.96    
     53300   405.25662      29800.947      6724.9433      48.731617      2.3577398     -152296.28     -151337.13    
     53400   399.24425      19774.26       6724.9433      48.731617      2.3577398     -152305.29     -151360.38    
     53500   391.46315      60408.172      6724.9433      48.731617      2.3577398     -152288.53     -151362.03    
     53600   402.25597      16448.447      6724.9433      48.731617      2.3577398     -152254.04     -151302       
     53700   422.01963     -29774.854      6724.9433      48.731617      2.3577398     -152269.03     -151270.21    
     53800   400.63258      64263.87       6724.9433      48.731617      2.3577398     -152248.46     -151300.26    
     53900   394.54199      38332.646      6724.9433      48.731617      2.3577398     -152261.77     -151327.99    
     54000   394.23882     -12860.144      6724.9433      48.731617      2.3577398     -152264.94     -151331.87    
     54100   405.81397      62362.558      6724.9433      48.731617      2.3577398     -152293.4      -151332.93    
     54200   397.19534      36127.807      6724.9433      48.731617      2.3577398     -152280.42     -151340.35    
     54300   403.19819      5990.6226      6724.9433      48.731617      2.3577398     -152296.69     -151342.42    
     54400   407.88896     -11523.083      6724.9433      48.731617      2.3577398     -152286.25     -151320.88    
     54500   399.84627      7844.3392      6724.9433      48.731617      2.3577398     -152241.92     -151295.58    
     54600   399.03757      39907.214      6724.9433      48.731617      2.3577398     -152217.76     -151273.33    
     54700   419.63716      4845.714       6724.9433      48.731617      2.3577398     -152246.48     -151253.3     
     54800   391.20244      14445.362      6724.9433      48.731617      2.3577398     -152233.58     -151307.7     
     54900   395.45982      30520.137      6724.9433      48.731617      2.3577398     -152286.65     -151350.69    
     55000   402.46706     -42462.292      6724.9433      48.731617      2.3577398     -152303.4      -151350.85    
     55100   413.18718     -15897.293      6724.9433      48.731617      2.3577398     -152297.07     -151319.16    
     55200   422.84439      21077.832      6724.9433      48.731617      2.3577398     -152251.08     -151250.31    
     55300   400.42962      1750.1325      6724.9433      48.731617      2.3577398     -152189.79     -151242.07    
     55400   403.79372      22826.495      6724.9433      48.731617      2.3577398     -152276.36     -151320.68    
     55500   399.99555     -11864.494      6724.9433      48.731617      2.3577398     -152307.55     -151360.85    
     55600   399.6741       18355.031      6724.9433      48.731617      2.3577398     -152298.34     -151352.41    
     55700   405.27993      11918.507      6724.9433      48.731617      2.3577398     -152274.21     -151315.01    
     55800   393.08705      22936.624      6724.9433      48.731617      2.3577398     -152217.31     -151286.96    
     55900   411.40606     -19291.416      6724.9433      48.731617      2.3577398     -152261.32     -151287.61    
     56000   391.38359     -3341.3662      6724.9433      48.731617      2.3577398     -152281.69     -151355.38    
     56100   388.95929     -3853.3201      6724.9433      48.731617      2.3577398     -152302.12     -151381.54    
     56200   394.34655      17369.876      6724.9433      48.731617      2.3577398     -152289.05     -151355.72    
     56300   397.94668      31109.974      6724.9433      48.731617      2.3577398     -152252.85     -151311       
     56400   419.90428      68635.577      6724.9433      48.731617      2.3577398     -152284.53     -151290.71    
     56500   408.7372      -18757.619      6724.9433      48.731617      2.3577398     -152254.38     -151287       
     56600   403.16741     -6383.5503      6724.9433      48.731617      2.3577398     -152255.28     -151301.08    
     56700   390.52401      12012.878      6724.9433      48.731617      2.3577398     -152269.33     -151345.05    
     56800   389.8992       7977.8861      6724.9433      48.731617      2.3577398     -152335.88     -151413.08    
     56900   375.68858      81699.387      6724.9433      48.731617      2.3577398     -152319.05     -151429.89    
     57000   406.95826      22691.491      6724.9433      48.731617      2.3577398     -152304.72     -151341.55    
     57100   408.82998      20715.269      6724.9433      48.731617      2.3577398     -152292.35     -151324.74    
     57200   402.96242      108242.77      6724.9433      48.731617      2.3577398     -152269.26     -151315.54    
     57300   404.0383       19360.558      6724.9433      48.731617      2.3577398     -152253.83     -151297.57    
     57400   407.0581      -5182.6587      6724.9433      48.731617      2.3577398     -152259.79     -151296.38    
     57500   401.88813      17895.872      6724.9433      48.731617      2.3577398     -152271.11     -151319.94    
     57600   390.12659      15990.568      6724.9433      48.731617      2.3577398     -152299.64     -151376.3     
     57700   393.0932       1018.5177      6724.9433      48.731617      2.3577398     -152301.63     -151371.27    
     57800   394.93025     -2451.8257      6724.9433      48.731617      2.3577398     -152255.48     -151320.78    
     57900   390.19609     -17220.337      6724.9433      48.731617      2.3577398     -152222.6      -151299.1     
     58000   385.89036      56802.141      6724.9433      48.731617      2.3577398     -152219.09     -151305.78    
     58100   398.52518      34732.455      6724.9433      48.731617      2.3577398     -152244.4      -151301.18    
     58200   395.66031      4273.4604      6724.9433      48.731617      2.3577398     -152225.49     -151289.05    
     58300   396.58398      30858.843      6724.9433      48.731617      2.3577398     -152237.27     -151298.65    
     58400   388.43966      21209.897      6724.9433      48.731617      2.3577398     -152265.5      -151346.15    
     58500   382.95918      5095.8766      6724.9433      48.731617      2.3577398     -152288.46     -151382.09    
     58600   380.21159      43713.845      6724.9433      48.731617      2.3577398     -152253.95     -151354.08    
     58700   403.46946     -20494.376      6724.9433      48.731617      2.3577398     -152244.41     -151289.5     
     58800   398.60758     -48393.373      6724.9433      48.731617      2.3577398     -152243.93     -151300.52    
     58900   405.61656      16890.765      6724.9433      48.731617      2.3577398     -152296.46     -151336.46    
     59000   398.25227     -9224.7895      6724.9433      48.731617      2.3577398     -152312.46     -151369.89    
     59100   386.85008     -30793.583      6724.9433      48.731617      2.3577398     -152296.71     -151381.12    
     59200   392.89137      68360.8        6724.9433      48.731617      2.3577398     -152254.43     -151324.55    
     59300   406.53553      48322.992      6724.9433      48.731617      2.3577398     -152229.01     -151266.83    
     59400   405.84722     -39769.908      6724.9433      48.731617      2.3577398     -152236.27     -151275.73    
     59500   403.81542      9466.4267      6724.9433      48.731617      2.3577398     -152280.8      -151325.06    
     59600   398.7865       37651.783      6724.9433      48.731617      2.3577398     -152298.18     -151354.35    
     59700   397.01042     -28314.3        6724.9433      48.731617      2.3577398     -152285.1      -151345.47    
     59800   392.94101     -4608.377       6724.9433      48.731617      2.3577398     -152255.63     -151325.63    
     59900   388.6147       67551.132      6724.9433      48.731617      2.3577398     -152237.7      -151317.94    
     60000   415.5562      -2660.9056      6724.9433      48.731617      2.3577398     -152287.8      -151304.27    
     60100   400.33302     -24238.904      6724.9433      48.731617      2.3577398     -152267.13     -151319.64    
     60200   407.65138      63903.721      6724.9433      48.731617      2.3577398     -152321.29     -151356.47    
     60300   384.00803      26199.608      6724.9433      48.731617      2.3577398     -152317.14     -151408.28    
     60400   376.85917     -17634.5        6724.9433      48.731617      2.3577398     -152297.51     -151405.57    
     60500   383.74474      39643.52       6724.9433      48.731617      2.3577398     -152231.53     -151323.3     
     60600   405.19708      50782.092      6724.9433      48.731617      2.3577398     -152245.51     -151286.5     
     60700   414.18839     -28589.694      6724.9433      48.731617      2.3577398     -152263.09     -151282.8     
     60800   402.74039      73844.246      6724.9433      48.731617      2.3577398     -152273.87     -151320.68    
     60900   394.283        16115.604      6724.9433      48.731617      2.3577398     -152303.33     -151370.15    
     61000   394.23479      22768.318      6724.9433      48.731617      2.3577398     -152298.93     -151365.87    
     61100   412.84566      24447.992      6724.9433      48.731617      2.3577398     -152272.4      -151295.29    
     61200   424.73093      20681.192      6724.9433      48.731617      2.3577398     -152258.6      -151253.36    
     61300   417.15342      30745.053      6724.9433      48.731617      2.3577398     -152277.87     -151290.57    
     61400   386.26759      13570.718      6724.9433      48.731617      2.3577398     -152250.74     -151336.54    
     61500   388.46134      31786.545      6724.9433      48.731617      2.3577398     -152247.66     -151328.26    
     61600   405.20066     -19120.769      6724.9433      48.731617      2.3577398     -152248.78     -151289.76    
     61700   404.40495     -27835.513      6724.9433      48.731617      2.3577398     -152215.02     -151257.89    
     61800   415.50109      30862.602      6724.9433      48.731617      2.3577398     -152212.46     -151229.07    
     61900   407.33548      18362.361      6724.9433      48.731617      2.3577398     -152236.34     -151272.28    
     62000   390.66935     -9108.9415      6724.9433      48.731617      2.3577398     -152253.37     -151328.75    
     62100   384.67706      40441.266      6724.9433      48.731617      2.3577398     -152252.72     -151342.28    
     62200   403.04506     -43005.081      6724.9433      48.731617      2.3577398     -152283.65     -151329.74    
     62300   401.65628     -22589.747      6724.9433      48.731617      2.3577398     -152243.04     -151292.42    
     62400   417.77587      60318.077      6724.9433      48.731617      2.3577398     -152224.6      -151235.82    
     62500   425.51547      3397.2588      6724.9433      48.731617      2.3577398     -152246.25     -151239.15    
     62600   395.11173     -25407.786      6724.9433      48.731617      2.3577398     -152246.1      -151310.97    
     62700   407.55947      88168.692      6724.9433      48.731617      2.3577398     -152289.1      -151324.51    
     62800   406.50448      37496.498      6724.9433      48.731617      2.3577398     -152290.94     -151328.84    
     62900   403.953       -49236.576      6724.9433      48.731617      2.3577398     -152292.07     -151336.01    
     63000   396.03998      94923.107      6724.9433      48.731617      2.3577398     -152279.25     -151341.92    
     63100   386.07674      613.27199      6724.9433      48.731617      2.3577398     -152234.15     -151320.4     
     63200   421.16062      47242.862      6724.9433      48.731617      2.3577398     -152265.59     -151268.8     
     63300   398.46596      10308.723      6724.9433      48.731617      2.3577398     -152237.28     -151294.2     
     63400   389.20134     -1722.1309      6724.9433      48.731617      2.3577398     -152264.79     -151343.65    
     63500   389.84011      43051.554      6724.9433      48.731617      2.3577398     -152277.83     -151355.17    
     63600   398.45015     -3212.0689      6724.9433      48.731617      2.3577398     -152279.69     -151336.66    
     63700   391.97919      8600.1405      6724.9433      48.731617      2.3577398     -152239.04     -151311.31    
     63800   395.77309      11565.385      6724.9433      48.731617      2.3577398     -152231.75     -151295.05    
     63900   394.73641      23909.844      6724.9433      48.731617      2.3577398     -152182.25     -151248       
     64000   407.1257       44299.81       6724.9433      48.731617      2.3577398     -152165.04     -151201.47    
     64100   402.53032      58377.91       6724.9433      48.731617      2.3577398     -152200.43     -151247.73    
     64200   409.25799      45930.377      6724.9433      48.731617      2.3577398     -152262.59     -151293.97    
     64300   399.26783     -24190.308      6724.9433      48.731617      2.3577398     -152268.31     -151323.34    
     64400   384.29904      55087.259      6724.9433      48.731617      2.3577398     -152258.83     -151349.28    
     64500   414.66509      63548.765      6724.9433      48.731617      2.3577398     -152313.33     -151331.92    
[...]
    384200   389.52182      26760.859      6724.9433      48.731617      2.3577398     -152257.04     -151335.14    
    384300   391.75272      19771.234      6724.9433      48.731617      2.3577398     -152234.08     -151306.89    
    384400   420.1591       18421.912      6724.9433      48.731617      2.3577398     -152265.8      -151271.38    
    384500   402.87351     -746.22149      6724.9433      48.731617      2.3577398     -152235.44     -151281.93    
    384600   400.77303      27876.448      6724.9433      48.731617      2.3577398     -152302.1      -151353.57    
    384700   372.47569      1122.3238      6724.9433      48.731617      2.3577398     -152259.06     -151377.5     
    384800   385.74716     -46837.191      6724.9433      48.731617      2.3577398     -152262.18     -151349.21    
    384900   392.50489      44982.864      6724.9433      48.731617      2.3577398     -152246.59     -151317.62    
    385000   417.18355      45228.702      6724.9433      48.731617      2.3577398     -152278.03     -151290.66    
    385100   404.78962     -30687.898      6724.9433      48.731617      2.3577398     -152257.02     -151298.98    
    385200   402.42949     -19925.364      6724.9433      48.731617      2.3577398     -152268        -151315.54    
    385300   384.22067      70130.416      6724.9433      48.731617      2.3577398     -152243.28     -151333.92    
    385400   411.89217     -6140.3047      6724.9433      48.731617      2.3577398     -152297.44     -151322.59    
    385500   417.74622      59942.669      6724.9433      48.731617      2.3577398     -152238.74     -151250.04    
    385600   413.98598      61324.485      6724.9433      48.731617      2.3577398     -152215.93     -151236.12    
    385700   402.36313     -10061.699      6724.9433      48.731617      2.3577398     -152233.94     -151281.65    
    385800   394.66176      35514.271      6724.9433      48.731617      2.3577398     -152265.05     -151330.98    
    385900   407.98036      20162.283      6724.9433      48.731617      2.3577398     -152306.81     -151341.22    
    386000   396.58627     -4045.1865      6724.9433      48.731617      2.3577398     -152279.29     -151340.66    
    386100   396.72064      46049.227      6724.9433      48.731617      2.3577398     -152250.85     -151311.9     
    386200   413.25877     -3586.1064      6724.9433      48.731617      2.3577398     -152230.76     -151252.68    
    386300   402.95871     -7142.6936      6724.9433      48.731617      2.3577398     -152212.1      -151258.39    
    386400   400.58555      33468.589      6724.9433      48.731617      2.3577398     -152239.46     -151291.37    
    386500   402.61154      4500.8189      6724.9433      48.731617      2.3577398     -152310.72     -151357.83    
    386600   403.65831      31980.751      6724.9433      48.731617      2.3577398     -152322.12     -151366.76    
    386700   408.26302     -9805.9054      6724.9433      48.731617      2.3577398     -152308.59     -151342.33    
    386800   421.74959      41822.925      6724.9433      48.731617      2.3577398     -152295.17     -151296.99    
    386900   404.52523      73708.396      6724.9433      48.731617      2.3577398     -152232.78     -151275.37    
    387000   397.70147     -28535.381      6724.9433      48.731617      2.3577398     -152250.26     -151309       
    387100   399.33332      30561.386      6724.9433      48.731617      2.3577398     -152301.5      -151356.37    
    387200   385.18081      25634.714      6724.9433      48.731617      2.3577398     -152268.15     -151356.52    
    387300   397.3922       7357.2398      6724.9433      48.731617      2.3577398     -152269.78     -151329.25    
    387400   388.71716     -26009.16       6724.9433      48.731617      2.3577398     -152240.07     -151320.07    
    387500   379.97733      39362.579      6724.9433      48.731617      2.3577398     -152214.31     -151314.99    
    387600   403.49302      24815.663      6724.9433      48.731617      2.3577398     -152251.27     -151296.3     
    387700   426.50599     -48640.902      6724.9433      48.731617      2.3577398     -152259.43     -151249.99    
    387800   412.67347      76467.138      6724.9433      48.731617      2.3577398     -152188.06     -151211.36    
    387900   399.43595      33266.398      6724.9433      48.731617      2.3577398     -152207.16     -151261.79    
    388000   393.18574     -57900.659      6724.9433      48.731617      2.3577398     -152243.91     -151313.33    
    388100   400.12666      84536.184      6724.9433      48.731617      2.3577398     -152288.6      -151341.59    
    388200   395.98809     -1196.6222      6724.9433      48.731617      2.3577398     -152283.83     -151346.62    
    388300   413.71584     -21132.268      6724.9433      48.731617      2.3577398     -152283.73     -151304.56    
    388400   411.29321      39214.11       6724.9433      48.731617      2.3577398     -152218.34     -151244.91    
    388500   389.36019      20644.857      6724.9433      48.731617      2.3577398     -152172.75     -151251.23    
    388600   410.57382      3572.6243      6724.9433      48.731617      2.3577398     -152236.69     -151264.96    
    388700   402.76849      34308.106      6724.9433      48.731617      2.3577398     -152242.28     -151289.02    
    388800   402.79997     -3371.1655      6724.9433      48.731617      2.3577398     -152263.43     -151310.09    
    388900   403.32922      36835.168      6724.9433      48.731617      2.3577398     -152283.92     -151329.33    
    389000   404.82878     -4156.4571      6724.9433      48.731617      2.3577398     -152309.38     -151351.24    
    389100   390.50551      32163.954      6724.9433      48.731617      2.3577398     -152285.67     -151361.44    
    389200   422.25947     -22260.517      6724.9433      48.731617      2.3577398     -152301.35     -151301.96    
    389300   417.40075      4437.6745      6724.9433      48.731617      2.3577398     -152253.22     -151265.34    
    389400   410.52134      76579.596      6724.9433      48.731617      2.3577398     -152258.91     -151287.3     
    389500   411.3516      -15284.027      6724.9433      48.731617      2.3577398     -152308.24     -151334.67    
    389600   388.77017     -1174.5455      6724.9433      48.731617      2.3577398     -152281.82     -151361.69    
    389700   393.9555       47484.448      6724.9433      48.731617      2.3577398     -152286.66     -151354.26    
    389800   391.06869      6870.7501      6724.9433      48.731617      2.3577398     -152267.13     -151341.56    
    389900   396.29358      44333.609      6724.9433      48.731617      2.3577398     -152247.72     -151309.79    
    390000   420.21469      38339.824      6724.9433      48.731617      2.3577398     -152274.63     -151280.08    
    390100   400.31985     -6325.7085      6724.9433      48.731617      2.3577398     -152243.8      -151296.33    
    390200   384.39759      56241.152      6724.9433      48.731617      2.3577398     -152271.09     -151361.31    
    390300   407.08085      7189.3831      6724.9433      48.731617      2.3577398     -152329.72     -151366.25    
    390400   394.62725     -36982.648      6724.9433      48.731617      2.3577398     -152285.41     -151351.42    
    390500   399.47445      54426.018      6724.9433      48.731617      2.3577398     -152232.14     -151286.68    
    390600   429.19488      43794.552      6724.9433      48.731617      2.3577398     -152265.18     -151249.38    
    390700   414.0432      -30729.882      6724.9433      48.731617      2.3577398     -152264.43     -151284.49    
    390800   402.33082      3715.4844      6724.9433      48.731617      2.3577398     -152264.22     -151312       
    390900   394.42076      87025.907      6724.9433      48.731617      2.3577398     -152250.11     -151316.61    
    391000   392.13072     -3202.5154      6724.9433      48.731617      2.3577398     -152232.3      -151304.22    
    391100   410.51388     -19908.125      6724.9433      48.731617      2.3577398     -152281.53     -151309.94    
    391200   395.38094      71832.093      6724.9433      48.731617      2.3577398     -152308.26     -151372.49    
    391300   385.57173      52290.648      6724.9433      48.731617      2.3577398     -152287.7      -151375.14    
    391400   405.37649     -37198.034      6724.9433      48.731617      2.3577398     -152281.85     -151322.42    
    391500   407.28913      108713.36      6724.9433      48.731617      2.3577398     -152259.61     -151295.65    
    391600   414.56753      15788.049      6724.9433      48.731617      2.3577398     -152273.45     -151292.27    
    391700   409.862       -19921.447      6724.9433      48.731617      2.3577398     -152269.53     -151299.49    
    391800   405.79003      69256.453      6724.9433      48.731617      2.3577398     -152276.47     -151316.06    
    391900   399.72784     -2553.8833      6724.9433      48.731617      2.3577398     -152286.52     -151340.46    
    392000   386.0022      -25629.882      6724.9433      48.731617      2.3577398     -152292.43     -151378.86    
    392100   387.57348      76916.209      6724.9433      48.731617      2.3577398     -152310.47     -151393.17    
    392200   392.24512     -16780.283      6724.9433      48.731617      2.3577398     -152278.91     -151350.55    
    392300   392.10489      35362.363      6724.9433      48.731617      2.3577398     -152228.72     -151300.7     
    392400   397.78205      2577.6743      6724.9433      48.731617      2.3577398     -152216.87     -151275.42    
    392500   405.27788     -6727.2922      6724.9433      48.731617      2.3577398     -152248.63     -151289.43    
    392600   405.69997      5097.6358      6724.9433      48.731617      2.3577398     -152311.14     -151350.95    
    392700   395.2247      -22614.493      6724.9433      48.731617      2.3577398     -152293.89     -151358.49    
    392800   397.01578      31174.782      6724.9433      48.731617      2.3577398     -152286.62     -151346.97    
    392900   399.6294       70429.397      6724.9433      48.731617      2.3577398     -152271.12     -151325.29    
    393000   410.65307      4632.2204      6724.9433      48.731617      2.3577398     -152253.13     -151281.21    
    393100   424.5462       34269.48       6724.9433      48.731617      2.3577398     -152233.48     -151228.68    
    393200   416.73209      56257.933      6724.9433      48.731617      2.3577398     -152253.3      -151267       
    393300   389.36942      17462.121      6724.9433      48.731617      2.3577398     -152226.57     -151305.03    
    393400   404.99004      39027.358      6724.9433      48.731617      2.3577398     -152260.95     -151302.43    
    393500   407.21087      6813.0461      6724.9433      48.731617      2.3577398     -152267.39     -151303.62    
    393600   393.90385      22928.516      6724.9433      48.731617      2.3577398     -152256.05     -151323.78    
    393700   389.09521      47516.456      6724.9433      48.731617      2.3577398     -152277.41     -151356.52    
    393800   390.90392      6127.8046      6724.9433      48.731617      2.3577398     -152307.12     -151381.95    
    393900   385.93005     -9246.1991      6724.9433      48.731617      2.3577398     -152298.07     -151384.66    
    394000   403.92411      46152.334      6724.9433      48.731617      2.3577398     -152279.16     -151323.16    
    394100   413.26551      12547.516      6724.9433      48.731617      2.3577398     -152258.52     -151280.42    
    394200   400.19534      19201.857      6724.9433      48.731617      2.3577398     -152235.24     -151288.07    
    394300   391.91483      64177.262      6724.9433      48.731617      2.3577398     -152259.3      -151331.73    
    394400   378.24652      3562.1382      6724.9433      48.731617      2.3577398     -152260.62     -151365.4     
    394500   405.83143      10674.75       6724.9433      48.731617      2.3577398     -152284.37     -151323.86    
    394600   414.74311      19742.514      6724.9433      48.731617      2.3577398     -152243.69     -151262.09    
    394700   400.20219      58203.484      6724.9433      48.731617      2.3577398     -152217.93     -151270.75    
    394800   376.79378     -9717.0128      6724.9433      48.731617      2.3577398     -152213.57     -151321.78    
    394900   393.87813      7976.5249      6724.9433      48.731617      2.3577398     -152276.35     -151344.13    
    395000   383.03407      12532.504      6724.9433      48.731617      2.3577398     -152253.28     -151346.73    
    395100   398.51921      23059.268      6724.9433      48.731617      2.3577398     -152259.63     -151316.43    
    395200   389.15891      10680.067      6724.9433      48.731617      2.3577398     -152225.88     -151304.83    
    395300   410.41353      25063.207      6724.9433      48.731617      2.3577398     -152277.79     -151306.44    
    395400   383.07971      4111.0625      6724.9433      48.731617      2.3577398     -152231.86     -151325.2     
    395500   404.65087      58489.378      6724.9433      48.731617      2.3577398     -152272.48     -151314.77    
    395600   419.18758     -25024.223      6724.9433      48.731617      2.3577398     -152286.85     -151294.73    
    395700   398.62607      58459.336      6724.9433      48.731617      2.3577398     -152267.19     -151323.74    
    395800   392.90373      52690.233      6724.9433      48.731617      2.3577398     -152300.02     -151370.11    
    395900   397.05279      31159.464      6724.9433      48.731617      2.3577398     -152314.94     -151375.21    
    396000   398.96517     -23610.505      6724.9433      48.731617      2.3577398     -152252.24     -151307.98    
    396100   396.6378       74830.076      6724.9433      48.731617      2.3577398     -152221.56     -151282.81    
    396200   422.78358     -43379.507      6724.9433      48.731617      2.3577398     -152295.34     -151294.71    
    396300   400.62225     -29128.954      6724.9433      48.731617      2.3577398     -152292.38     -151344.2     
    396400   386.33498      47331.713      6724.9433      48.731617      2.3577398     -152283.27     -151368.91    
    396500   398.226        29534.869      6724.9433      48.731617      2.3577398     -152282.86     -151340.35    
    396600   401.63943     -30002.831      6724.9433      48.731617      2.3577398     -152244.37     -151293.79    
    396700   398.38824      1302.8011      6724.9433      48.731617      2.3577398     -152227.32     -151284.43    
    396800   395.33353      15080.144      6724.9433      48.731617      2.3577398     -152236.96     -151301.3     
    396900   395.13416      22370.68       6724.9433      48.731617      2.3577398     -152267.3      -151332.11    
    397000   395.08021      22641.234      6724.9433      48.731617      2.3577398     -152276.94     -151341.88    
    397100   416.3845       26762.049      6724.9433      48.731617      2.3577398     -152282.68     -151297.19    
    397200   402.72424      28157.877      6724.9433      48.731617      2.3577398     -152201.43     -151248.27    
    397300   403.68263      35240.468      6724.9433      48.731617      2.3577398     -152215.97     -151260.55    
    397400   398.51817     -4879.7543      6724.9433      48.731617      2.3577398     -152246.73     -151303.53    
    397500   405.10816      38502.541      6724.9433      48.731617      2.3577398     -152269.35     -151310.56    
    397600   405.19741      34911.253      6724.9433      48.731617      2.3577398     -152273.54     -151314.53    
    397700   404.75654     -847.1014       6724.9433      48.731617      2.3577398     -152279.08     -151321.12    
    397800   373.92632      21331.12       6724.9433      48.731617      2.3577398     -152252.71     -151367.71    
    397900   388.14407      49025.371      6724.9433      48.731617      2.3577398     -152294.61     -151375.96    
    398000   399.16111     -50268.724      6724.9433      48.731617      2.3577398     -152253.68     -151308.96    
    398100   421.18192     -6738.3775      6724.9433      48.731617      2.3577398     -152270.97     -151274.14    
    398200   407.35223      14650.39       6724.9433      48.731617      2.3577398     -152248.54     -151284.44    
    398300   388.72196     -31317.548      6724.9433      48.731617      2.3577398     -152241.76     -151321.74    
    398400   382.60613     -32415.701      6724.9433      48.731617      2.3577398     -152251.07     -151345.53    
    398500   387.23666      55688.587      6724.9433      48.731617      2.3577398     -152251.96     -151335.46    
    398600   392.79858     -6578.1662      6724.9433      48.731617      2.3577398     -152247.94     -151318.28    
    398700   396.4042       3063.8885      6724.9433      48.731617      2.3577398     -152241.6      -151303.41    
    398800   403.39781      35697.34       6724.9433      48.731617      2.3577398     -152258.82     -151304.07    
    398900   391.60508      4413.5705      6724.9433      48.731617      2.3577398     -152285.07     -151358.23    
    399000   384.13347      2098.3802      6724.9433      48.731617      2.3577398     -152322.46     -151413.3     
    399100   387.72739      20292.849      6724.9433      48.731617      2.3577398     -152307.99     -151390.34    
    399200   396.93425      25155.548      6724.9433      48.731617      2.3577398     -152272.45     -151333       
    399300   384.27481      44095.192      6724.9433      48.731617      2.3577398     -152214.33     -151304.84    
    399400   391.13664      21260.82       6724.9433      48.731617      2.3577398     -152209.98     -151284.25    
    399500   391.83983     -25025.119      6724.9433      48.731617      2.3577398     -152217.29     -151289.89    
    399600   391.87968      18493.736      6724.9433      48.731617      2.3577398     -152293.15     -151365.66    
    399700   390.64114      59238.419      6724.9433      48.731617      2.3577398     -152301.18     -151376.62    
    399800   392.64979     -31509.507      6724.9433      48.731617      2.3577398     -152266.3      -151336.99    
    399900   409.49438      59729.192      6724.9433      48.731617      2.3577398     -152270.25     -151301.07    
    400000   387.5231       32024.743      6724.9433      48.731617      2.3577398     -152226        -151308.83    
    400011   402.19599     -4621.4212      6724.9433      48.731617      2.3577398     -152260.83     -151308.93    
Loop time of 15407.3 on 64 procs for 400000 steps with 795 atoms

Performance: 0.561 ns/day, 42.798 hours/ns, 25.962 timesteps/s
99.6% CPU use with 64 MPI tasks x 1 OpenMP threads

MPI task timing breakdown:
Section |  min time  |  avg time  |  max time  |%varavg| %total
---------------------------------------------------------------
Pair    | 8758.2     | 11105      | 13877      |1466.7 | 72.08
Neigh   | 63.586     | 82.871     | 103.55     | 120.9 |  0.54
Comm    | 263.73     | 2764.8     | 5209.7     |2674.1 | 17.94
Output  | 0.50412    | 1.5771     | 2.5038     |  56.6 |  0.01
Modify  | 1158.2     | 1449.8     | 2250.4     | 767.8 |  9.41
Other   |            | 3.118      |            |       |  0.02

Nlocal:        12.4219 ave          16 max           8 min
Histogram: 2 2 9 5 0 19 4 10 12 1
Nghost:        2177.11 ave        2505 max        1912 min
Histogram: 8 8 0 11 15 6 2 6 3 5
Neighs:        6860.09 ave        9128 max        3498 min
Histogram: 3 2 6 4 12 5 8 5 8 11

Total # of neighbors = 439046
Ave neighs/atom = 552.25912
Neighbor list builds = 7717
Dangerous builds = 0

write_data graphene_single_layer_ReaxFF_750_C_temp_400K.data ### MODIFY FILE NAME ###
System init for write_data ...
Total wall time: 4:16:49
