
# System definition
read_data graphene_single_layer_x-45_y-45_795_C.data ### MODIFY FILE NAME ###
Reading data file ...
  orthogonal box = (-1.4464652 -1.4423034 -1.42) to (47.285152 47.149102 1.42)
  8 by 8 by 1 MPI processor grid
  reading atoms ...
  795 atoms
  reading velocities ...
  795 velocities
  read_data CPU = 0.011 seconds

pair_style reax/c NULL
pair_coeff * * ffield.reax.cho C
Reading potential file ffield.reax.cho with DATE: 2011-02-18
fix qeq_reax all qeq/reax 1 0.0 10.0 1.0e-6 reax/c


# Minimization
timestep 0.25
min_style cg
thermo 100
thermo_style custom step temp press vol lx density pe etotal
dump 2 all custom 1000 graphene_single_layer_ReaxFF_795_C_temp_500K.lammpstrj id type x y z ### MODIFY FILE NAME ###
minimize 1.0e-6 1.0e-6 100 1000

CITE-CITE-CITE-CITE-CITE-CITE-CITE-CITE-CITE-CITE-CITE-CITE-CITE

Your simulation uses code contributions which should be cited:

- pair reaxff command:

@Article{Aktulga12,
 author = {H. M. Aktulga, J. C. Fogarty, S. A. Pandit, A. Y. Grama},
 title = {Parallel reactive molecular dynamics: Numerical methods and algorithmic techniques},
 journal = {Parallel Computing},
 year =    2012,
 volume =  38,
 pages =   {245--259}
}

- fix qeq/reaxff command:

@Article{Aktulga12,
 author = {H. M. Aktulga, J. C. Fogarty, S. A. Pandit, A. Y. Grama},
 title = {Parallel reactive molecular dynamics: Numerical methods and algorithmic techniques},
 journal = {Parallel Computing},
 year =    2012,
 volume =  38,
 pages =   {245--259}
}

CITE-CITE-CITE-CITE-CITE-CITE-CITE-CITE-CITE-CITE-CITE-CITE-CITE

WARNING: Using 'neigh_modify every 1 delay 0 check yes' setting during minimization (src/min.cpp:187)
Neighbor list info ...
  update every 1 steps, delay 0 steps, check yes
  max neighbors/atom: 10000, page size: 100000
  master list distance cutoff = 10.4
  ghost atom cutoff = 10.4
  binsize = 5.2, bins = 10 10 1
  2 neighbor lists, perpetual/occasional/extra = 2 0 0
  (1) pair reax/c, perpetual
      attributes: half, newton off, ghost
      pair build: half/bin/newtoff/ghost
      stencil: full/ghost/bin/3d
      bin: standard
  (2) fix qeq/reax, perpetual, copy from (1)
      attributes: half, newton off
      pair build: copy
      stencil: none
      bin: none
Per MPI rank memory allocation (min/avg/max) = 36.37 | 41.41 | 47.38 Mbytes
   Step          Temp          Press          Volume           Lx          Density         PotEng         TotEng    
         0   923            34054.396      6724.9433      48.731617      2.3577398     -151766.67     -149582.14    
        11   923            35396.792      6724.9433      48.731617      2.3577398     -151904.55     -149720.03    
Loop time of 2.20196 on 64 procs for 11 steps with 795 atoms

98.6% CPU use with 64 MPI tasks x 1 OpenMP threads

Minimization stats:
  Stopping criterion = energy tolerance
  Energy initial, next-to-last, final = 
     -151766.666472543  -151904.508881892  -151904.547898656
  Force two-norm initial, final = 279.94165 356.09863
  Force max component initial, final = 137.99181 55.448555
  Final line search alpha, max atom move = 0.00038853166 0.021543519
  Iterations, force evaluations = 11 32

MPI task timing breakdown:
Section |  min time  |  avg time  |  max time  |%varavg| %total
---------------------------------------------------------------
Pair    | 0.90748    | 1.2421     | 1.8347     |  18.1 | 56.41
Neigh   | 0.010937   | 0.018669   | 0.027446   |   2.6 |  0.85
Comm    | 0.027306   | 0.49323    | 0.88965    |  25.7 | 22.40
Output  | 0          | 0          | 0          |   0.0 |  0.00
Modify  | 0.3077     | 0.31656    | 0.32443    |   0.6 | 14.38
Other   |            | 0.1314     |            |       |  5.97

Nlocal:        12.4219 ave          15 max          10 min
Histogram: 15 0 0 0 22 0 12 0 0 15
Nghost:        2194.12 ave        2559 max        1869 min
Histogram: 2 8 9 4 12 12 5 4 6 2
Neighs:        6807.34 ave        8856 max        4476 min
Histogram: 4 8 3 7 7 13 5 2 0 15

Total # of neighbors = 435670
Ave neighs/atom = 548.01258
Neighbor list builds = 1
Dangerous builds = 0

fix 1 all nvt temp 500.0 500.0 $(100.0*dt)  ### MODIFY INIT TEMP, FINAL TEMP ###
fix 1 all nvt temp 500.0 500.0 25  
run 400000
Per MPI rank memory allocation (min/avg/max) = 35.25 | 40.29 | 46.26 Mbytes
   Step          Temp          Press          Volume           Lx          Density         PotEng         TotEng    
        11   923            35396.792      6724.9433      48.731617      2.3577398     -151904.55     -149720.03    
       100   544.42035      40324.924      6724.9433      48.731617      2.3577398     -151048.69     -149760.17    
       200   479.57885      184947.21      6724.9433      48.731617      2.3577398     -150964.88     -149829.83    
       300   589.20838     -42438.023      6724.9433      48.731617      2.3577398     -151297.02     -149902.5     
       400   593.66996     -53957.716      6724.9433      48.731617      2.3577398     -151431.79     -150026.71    
       500   547.93723      73104.195      6724.9433      48.731617      2.3577398     -151519.6      -150222.76    
       600   535.65449     -23937.032      6724.9433      48.731617      2.3577398     -151657.45     -150389.68    
       700   490.11816      29866.138      6724.9433      48.731617      2.3577398     -151686.71     -150526.71    
       800   475.86311      75752.694      6724.9433      48.731617      2.3577398     -151749.02     -150622.76    
       900   500.0721       36423.537      6724.9433      48.731617      2.3577398     -151846.8      -150663.25    
      1000   539.79154      36887.378      6724.9433      48.731617      2.3577398     -151894.71     -150617.15    
      1100   524.76146      15090.41       6724.9433      48.731617      2.3577398     -151836.17     -150594.18    
      1200   519.50401      17519.015      6724.9433      48.731617      2.3577398     -151870.04     -150640.5     
      1300   493.44759      66654.912      6724.9433      48.731617      2.3577398     -151875.97     -150708.09    
      1400   479.02135      5280.227       6724.9433      48.731617      2.3577398     -151884.68     -150750.95    
      1500   495.37122      6082.5421      6724.9433      48.731617      2.3577398     -151901.62     -150729.2     
      1600   512.0369       9152.1737      6724.9433      48.731617      2.3577398     -151878.48     -150666.61    
      1700   524.63488     -1314.4875      6724.9433      48.731617      2.3577398     -151869.67     -150627.99    
      1800   495.29647      38254.77       6724.9433      48.731617      2.3577398     -151836.73     -150664.48    
      1900   493.67196     -4331.9247      6724.9433      48.731617      2.3577398     -151935.91     -150767.5     
      2000   486.67885     -18496.1        6724.9433      48.731617      2.3577398     -151918.23     -150766.37    
      2100   503.41466      21802.443      6724.9433      48.731617      2.3577398     -151927.5      -150736.04    
      2200   498.87657      46293.795      6724.9433      48.731617      2.3577398     -151860.74     -150680.01    
      2300   527.19439      35883.278      6724.9433      48.731617      2.3577398     -151879.82     -150632.08    
      2400   525.68636      30886.506      6724.9433      48.731617      2.3577398     -151909.75     -150665.58    
      2500   500.65707      36974.122      6724.9433      48.731617      2.3577398     -151897.02     -150712.09    
      2600   495.25392      864.74662      6724.9433      48.731617      2.3577398     -151880.18     -150708.03    
      2700   488.76644      37592.129      6724.9433      48.731617      2.3577398     -151836.22     -150679.43    
      2800   530.47656      59443.085      6724.9433      48.731617      2.3577398     -151911.71     -150656.2     
      2900   506.25845      48833.718      6724.9433      48.731617      2.3577398     -151911.02     -150712.82    
      3000   497.07786     -11954.416      6724.9433      48.731617      2.3577398     -151962.49     -150786.02    
      3100   494.76998      33954.397      6724.9433      48.731617      2.3577398     -151949.43     -150778.43    
      3200   504.88556      10151.138      6724.9433      48.731617      2.3577398     -151919.94     -150724.99    
      3300   528.58366      17409.813      6724.9433      48.731617      2.3577398     -151920.66     -150669.63    
      3400   500.11954      5197.1488      6724.9433      48.731617      2.3577398     -151852.83     -150669.16    
      3500   503.10624      20974.356      6724.9433      48.731617      2.3577398     -151878.13     -150687.39    
      3600   503.79551      40001.086      6724.9433      48.731617      2.3577398     -151899.66     -150707.29    
      3700   514.78791      21800.73       6724.9433      48.731617      2.3577398     -151953.89     -150735.51    
      3800   499.04141      45962.153      6724.9433      48.731617      2.3577398     -151953.02     -150771.9     
      3900   498.42922      52898.009      6724.9433      48.731617      2.3577398     -151994.08     -150814.42    
      4000   486.63329     -4005.8667      6724.9433      48.731617      2.3577398     -151996.29     -150844.55    
      4100   482.6181       35787.519      6724.9433      48.731617      2.3577398     -151915.55     -150773.3     
      4200   495.09604      10943.349      6724.9433      48.731617      2.3577398     -151886.83     -150715.05    
      4300   504.85811      2865.9018      6724.9433      48.731617      2.3577398     -151885        -150690.12    
      4400   512.88788     -6109.3098      6724.9433      48.731617      2.3577398     -151931.01     -150717.12    
      4500   495.84778      59477.797      6724.9433      48.731617      2.3577398     -151962.14     -150788.58    
      4600   476.39082      54939.265      6724.9433      48.731617      2.3577398     -151954.53     -150827.02    
      4700   477.85066      7002.7806      6724.9433      48.731617      2.3577398     -151907.21     -150776.25    
      4800   490.03265      23571.168      6724.9433      48.731617      2.3577398     -151908.2      -150748.41    
      4900   523.52504      13837.042      6724.9433      48.731617      2.3577398     -151967.17     -150728.11    
      5000   488.7403      -11188.77       6724.9433      48.731617      2.3577398     -151877.15     -150720.41    
      5100   485.31696     -27008.266      6724.9433      48.731617      2.3577398     -151860.93     -150712.3     
      5200   473.57774      14434.043      6724.9433      48.731617      2.3577398     -151837.44     -150716.59    
      5300   508.06812      18280.192      6724.9433      48.731617      2.3577398     -151939.75     -150737.27    
      5400   517.64946      59684.767      6724.9433      48.731617      2.3577398     -151993.86     -150768.71    
      5500   498.85314      41985.734      6724.9433      48.731617      2.3577398     -151988.32     -150807.65    
      5600   479.45217      24178.966      6724.9433      48.731617      2.3577398     -151938.73     -150803.98    
      5700   491.37146      30670.803      6724.9433      48.731617      2.3577398     -151887.38     -150724.42    
      5800   526.60729      10938.061      6724.9433      48.731617      2.3577398     -151925.17     -150678.82    
      5900   531.28394     -2579.0134      6724.9433      48.731617      2.3577398     -151957.23     -150699.8     
      6000   497.37902      25796.078      6724.9433      48.731617      2.3577398     -151934.74     -150757.57    
      6100   494.50841      57951.467      6724.9433      48.731617      2.3577398     -151936.21     -150765.83    
      6200   494.06378      65812.412      6724.9433      48.731617      2.3577398     -151920.06     -150750.72    
      6300   510.43463      19345.978      6724.9433      48.731617      2.3577398     -151931.61     -150723.53    
      6400   511.92657     -9259.2909      6724.9433      48.731617      2.3577398     -151893.96     -150682.35    
      6500   517.44668      10292.06       6724.9433      48.731617      2.3577398     -151835.01     -150610.34    
      6600   500.73328      57957.035      6724.9433      48.731617      2.3577398     -151810.21     -150625.1     
      6700   501.03884     -18066.745      6724.9433      48.731617      2.3577398     -151903.26     -150717.42    
      6800   513.64363      15717.821      6724.9433      48.731617      2.3577398     -151953.65     -150737.97    
      6900   493.70387      86550.801      6724.9433      48.731617      2.3577398     -151908.86     -150740.38    
      7000   515.15932     -9106.9152      6724.9433      48.731617      2.3577398     -151917.01     -150697.74    
      7100   524.83002      28211.644      6724.9433      48.731617      2.3577398     -151885.68     -150643.54    
      7200   501.59741      11913.197      6724.9433      48.731617      2.3577398     -151817.59     -150630.43    
      7300   506.55482      60441.031      6724.9433      48.731617      2.3577398     -151933.24     -150734.34    
      7400   493.80851     -3754.1323      6724.9433      48.731617      2.3577398     -151942.1      -150773.37    
      7500   501.569        22234.293      6724.9433      48.731617      2.3577398     -151950.62     -150763.53    
      7600   503.70073      32919.961      6724.9433      48.731617      2.3577398     -151903.03     -150710.89    
      7700   501.72127     -13290.765      6724.9433      48.731617      2.3577398     -151846.58     -150659.12    
      7800   527.02499      26206.655      6724.9433      48.731617      2.3577398     -151902.89     -150655.54    
      7900   512.66371      27119.278      6724.9433      48.731617      2.3577398     -151982        -150768.64    
      8000   485.60195     -5873.934       6724.9433      48.731617      2.3577398     -151935.89     -150786.59    
      8100   515.17124      34201.836      6724.9433      48.731617      2.3577398     -151969.5      -150750.22    
      8200   514.06839      52557.314      6724.9433      48.731617      2.3577398     -151917.19     -150700.51    
      8300   497.83143     -20046.635      6724.9433      48.731617      2.3577398     -151885.03     -150706.78    
      8400   501.88686      50683.838      6724.9433      48.731617      2.3577398     -151978.33     -150790.48    
      8500   485.87086      84757.722      6724.9433      48.731617      2.3577398     -151958.73     -150808.79    
      8600   493.80445      19597.985      6724.9433      48.731617      2.3577398     -151937.29     -150768.57    
      8700   494.08654      15448.372      6724.9433      48.731617      2.3577398     -151898.91     -150729.52    
      8800   525.11447      38121.991      6724.9433      48.731617      2.3577398     -151944.35     -150701.53    
      8900   528.98078      80487.612      6724.9433      48.731617      2.3577398     -151955.54     -150703.56    
      9000   509.02152      28298.272      6724.9433      48.731617      2.3577398     -151984.96     -150780.23    
      9100   483.4641       23642.281      6724.9433      48.731617      2.3577398     -151979.88     -150835.63    
      9200   503.45893      17250.045      6724.9433      48.731617      2.3577398     -151981.6      -150790.03    
      9300   510.3082       26340.508      6724.9433      48.731617      2.3577398     -151941.6      -150733.82    
      9400   513.91407     -24001.389      6724.9433      48.731617      2.3577398     -151933.61     -150717.29    
      9500   505.72319      19918.308      6724.9433      48.731617      2.3577398     -151919.99     -150723.06    
      9600   499.99918     -9130.3794      6724.9433      48.731617      2.3577398     -151957.24     -150773.86    
      9700   477.76412      68127.851      6724.9433      48.731617      2.3577398     -151974.19     -150843.43    
      9800   468.61765      37495.807      6724.9433      48.731617      2.3577398     -151935.09     -150825.98    
      9900   486.94317      35163.169      6724.9433      48.731617      2.3577398     -151903.14     -150750.66    
     10000   501.73022     -1187.0247      6724.9433      48.731617      2.3577398     -151908.67     -150721.2     
     10100   513.4861       22349.046      6724.9433      48.731617      2.3577398     -151918.39     -150703.09    
     10200   483.28291      13340.499      6724.9433      48.731617      2.3577398     -151866.25     -150722.44    
     10300   510.66097      11307.568      6724.9433      48.731617      2.3577398     -151969.49     -150760.88    
     10400   461.35826      32055.418      6724.9433      48.731617      2.3577398     -151912.88     -150820.96    
     10500   502.29998      52148.285      6724.9433      48.731617      2.3577398     -151988.17     -150799.35    
     10600   507.84183     -34387.059      6724.9433      48.731617      2.3577398     -151920.97     -150719.03    
     10700   497.32223      80287.958      6724.9433      48.731617      2.3577398     -151880.32     -150703.28    
     10800   515.89543      68954.433      6724.9433      48.731617      2.3577398     -151908.9      -150687.9     
     10900   502.32569      4980.5299      6724.9433      48.731617      2.3577398     -151876.11     -150687.22    
     11000   508.387        11231.279      6724.9433      48.731617      2.3577398     -151935.14     -150731.91    
     11100   477.50963      54141.237      6724.9433      48.731617      2.3577398     -151950.5      -150820.34    
     11200   452.73973      21977.54       6724.9433      48.731617      2.3577398     -151861.99     -150790.47    
     11300   493.97535      10859.111      6724.9433      48.731617      2.3577398     -151900.52     -150731.4     
     11400   497.48497     -4998.4008      6724.9433      48.731617      2.3577398     -151896.07     -150718.64    
     11500   503.52982      68051.809      6724.9433      48.731617      2.3577398     -151923.09     -150731.35    
     11600   467.01936     -11262.322      6724.9433      48.731617      2.3577398     -151902.21     -150796.89    
     11700   470.03592      36163.7        6724.9433      48.731617      2.3577398     -151952.08     -150839.62    
     11800   502.0207       71804.876      6724.9433      48.731617      2.3577398     -151981.48     -150793.32    
     11900   501.89054     -32562.336      6724.9433      48.731617      2.3577398     -151916.28     -150728.43    
     12000   511.74773      54042.921      6724.9433      48.731617      2.3577398     -151931.87     -150720.68    
     12100   499.98584      57697.135      6724.9433      48.731617      2.3577398     -151924.15     -150740.81    
     12200   481.92923      15647.097      6724.9433      48.731617      2.3577398     -151917.97     -150777.36    
     12300   489.17816      52996.401      6724.9433      48.731617      2.3577398     -151966.74     -150808.97    
     12400   486.18787      15644.617      6724.9433      48.731617      2.3577398     -151945.01     -150794.32    
     12500   495.35405     -1059.1544      6724.9433      48.731617      2.3577398     -151900.31     -150727.93    
     12600   501.37963      9493.5253      6724.9433      48.731617      2.3577398     -151897.39     -150710.74    
     12700   473.85031      33384.41       6724.9433      48.731617      2.3577398     -151868.27     -150746.78    
     12800   492.60053      42683.92       6724.9433      48.731617      2.3577398     -151982.49     -150816.63    
     12900   480.71285      26547.693      6724.9433      48.731617      2.3577398     -151988.89     -150851.15    
     13000   488.53661     -19381.537      6724.9433      48.731617      2.3577398     -151933.84     -150777.59    
     13100   509.76587      77995.42       6724.9433      48.731617      2.3577398     -151911.7      -150705.2     
     13200   505.23972      91391.072      6724.9433      48.731617      2.3577398     -151901.82     -150706.04    
     13300   512.29423      6007.0009      6724.9433      48.731617      2.3577398     -151932.9      -150720.42    
     13400   504.0277      -25251.96       6724.9433      48.731617      2.3577398     -151980.35     -150787.43    
     13500   483.66667      90035.079      6724.9433      48.731617      2.3577398     -151964.8      -150820.08    
     13600   487.06313      4192.667       6724.9433      48.731617      2.3577398     -151941.78     -150789.01    
     13700   525.18469     -3716.9576      6724.9433      48.731617      2.3577398     -151968.88     -150725.9     
     13800   510.27206      65287.316      6724.9433      48.731617      2.3577398     -151934.49     -150726.8     
     13900   499.82684      61266.699      6724.9433      48.731617      2.3577398     -151924.42     -150741.45    
     14000   506.24578      2359.1567      6724.9433      48.731617      2.3577398     -151977.69     -150779.53    
     14100   516.73644      17958.663      6724.9433      48.731617      2.3577398     -152009.49     -150786.49    
     14200   523.20007      73846.81       6724.9433      48.731617      2.3577398     -151993.98     -150755.69    
     14300   506.87446      8369.4835      6724.9433      48.731617      2.3577398     -151895.21     -150695.56    
     14400   505.71015      24476.672      6724.9433      48.731617      2.3577398     -151897.16     -150700.26    
     14500   500.30086     -381.59798      6724.9433      48.731617      2.3577398     -151960.63     -150776.54    
     14600   490.95303      60723.324      6724.9433      48.731617      2.3577398     -151947.35     -150785.38    
     14700   480.22582      63442.183      6724.9433      48.731617      2.3577398     -151898.69     -150762.11    
     14800   510.32941      36078.059      6724.9433      48.731617      2.3577398     -151941.62     -150733.8     
     14900   502.44364      10640.199      6724.9433      48.731617      2.3577398     -151905.23     -150716.07    
     15000   532.26189      56159.885      6724.9433      48.731617      2.3577398     -151916.4      -150656.66    
     15100   535.50566      27769.548      6724.9433      48.731617      2.3577398     -151865.44     -150598.02    
     15200   527.78448      4240.9885      6724.9433      48.731617      2.3577398     -151901.2      -150652.06    
     15300   501.54601      69250.494      6724.9433      48.731617      2.3577398     -151916.38     -150729.34    
     15400   512.31496     -44228.854      6724.9433      48.731617      2.3577398     -151976.68     -150764.15    
     15500   515.76365      19077.106      6724.9433      48.731617      2.3577398     -152003.62     -150782.93    
     15600   492.32137      67038.325      6724.9433      48.731617      2.3577398     -151943.11     -150777.91    
     15700   490.25318      33810.261      6724.9433      48.731617      2.3577398     -151885.92     -150725.61    
     15800   509.22318      241.37584      6724.9433      48.731617      2.3577398     -151873.32     -150668.11    
     15900   516.37529      60419.19       6724.9433      48.731617      2.3577398     -151904.18     -150682.04    
     16000   495.65358      24118.776      6724.9433      48.731617      2.3577398     -151942.28     -150769.18    
     16100   502.14726      14104.685      6724.9433      48.731617      2.3577398     -151973.92     -150785.46    
     16200   484.02156      69868.439      6724.9433      48.731617      2.3577398     -151906.71     -150761.14    
     16300   506.56414      16795.526      6724.9433      48.731617      2.3577398     -151911.76     -150712.84    
     16400   529.94467      12308.281      6724.9433      48.731617      2.3577398     -151945.78     -150691.53    
     16500   488.81008     -12959.163      6724.9433      48.731617      2.3577398     -151913.79     -150756.9     
     16600   474.46829      6917.8465      6724.9433      48.731617      2.3577398     -151964.52     -150841.56    
     16700   471.38037     -5224.4639      6724.9433      48.731617      2.3577398     -151913.46     -150797.81    
     16800   487.2816       51762.76       6724.9433      48.731617      2.3577398     -151884.65     -150731.37    
     16900   520.11365      57460.751      6724.9433      48.731617      2.3577398     -151928.12     -150697.13    
     17000   501.70172      52773.184      6724.9433      48.731617      2.3577398     -151896.47     -150709.06    
     17100   511.46371      53589.577      6724.9433      48.731617      2.3577398     -151970        -150759.48    
     17200   492.01574      2461.7983      6724.9433      48.731617      2.3577398     -151996.55     -150832.07    
     17300   503.96762      36714.968      6724.9433      48.731617      2.3577398     -152006.6      -150813.82    
     17400   493.06981      38227.25       6724.9433      48.731617      2.3577398     -151929.52     -150762.54    
     17500   517.41899      4546.7559      6724.9433      48.731617      2.3577398     -151961.83     -150737.22    
     17600   500.5832       10420.594      6724.9433      48.731617      2.3577398     -151927.55     -150742.79    
     17700   501.96703      15206.735      6724.9433      48.731617      2.3577398     -151943.26     -150755.23    
     17800   492.20578     -20654.01       6724.9433      48.731617      2.3577398     -151964.67     -150799.74    
     17900   494.01239      11795.453      6724.9433      48.731617      2.3577398     -152025.76     -150856.55    
     18000   495.85966      59389.799      6724.9433      48.731617      2.3577398     -151994.15     -150820.57    
     18100   498.01783      4011.4024      6724.9433      48.731617      2.3577398     -151925.77     -150747.08    
     18200   500.73834      35610.659      6724.9433      48.731617      2.3577398     -151914.22     -150729.09    
     18300   514.88532      57039.151      6724.9433      48.731617      2.3577398     -151945.52     -150726.91    
     18400   479.7608       24466.33       6724.9433      48.731617      2.3577398     -151925.68     -150790.19    
     18500   475.87186      27163.806      6724.9433      48.731617      2.3577398     -151955.81     -150829.53    
     18600   484.19995      144.23504      6724.9433      48.731617      2.3577398     -151938.99     -150793       
     18700   499.41273      27730.932      6724.9433      48.731617      2.3577398     -151895.49     -150713.5     
     18800   523.30251      13928.732      6724.9433      48.731617      2.3577398     -151950.78     -150712.24    
     18900   518.90076      35264.369      6724.9433      48.731617      2.3577398     -151972.23     -150744.12    
     19000   489.86964     -18979.2        6724.9433      48.731617      2.3577398     -151935.75     -150776.34    
     19100   504.96759      1683.6219      6724.9433      48.731617      2.3577398     -151984.65     -150789.51    
     19200   496.13394      66098.634      6724.9433      48.731617      2.3577398     -151948.18     -150773.95    
     19300   506.95013     -2032.2379      6724.9433      48.731617      2.3577398     -151898.21     -150698.38    
     19400   516.07757     -10229.876      6724.9433      48.731617      2.3577398     -151894.75     -150673.32    
     19500   495.28778      44359.269      6724.9433      48.731617      2.3577398     -151888.28     -150716.05    
     19600   493.08394      9443.4319      6724.9433      48.731617      2.3577398     -151955.57     -150788.56    
     19700   486.15411      27192.136      6724.9433      48.731617      2.3577398     -151943.61     -150793       
     19800   494.98822      36757.228      6724.9433      48.731617      2.3577398     -151940.58     -150769.06    
     19900   498.14039     -38265.459      6724.9433      48.731617      2.3577398     -151915        -150736.02    
     20000   521.39474      46338.411      6724.9433      48.731617      2.3577398     -151950.5      -150716.49    
     20100   515.73563      51200.708      6724.9433      48.731617      2.3577398     -151896.28     -150675.66    
     20200   518.886       -23314.618      6724.9433      48.731617      2.3577398     -151853.87     -150625.79    
     20300   532.2131       15524.41       6724.9433      48.731617      2.3577398     -151945.35     -150685.72    
     20400   501.17352      70415.195      6724.9433      48.731617      2.3577398     -151930.54     -150744.38    
     20500   486.1118       46220.349      6724.9433      48.731617      2.3577398     -151897.96     -150747.45    
     20600   497.24541      23300.277      6724.9433      48.731617      2.3577398     -151880.6      -150703.74    
     20700   501.60141      19572.655      6724.9433      48.731617      2.3577398     -151861.4      -150674.23    
     20800   515.97833      89367.892      6724.9433      48.731617      2.3577398     -151932.69     -150711.5     
     20900   497.22534      24421.425      6724.9433      48.731617      2.3577398     -151975.64     -150798.83    
     21000   496.50908      34486.203      6724.9433      48.731617      2.3577398     -151967.27     -150792.15    
     21100   493.49013      6371.9935      6724.9433      48.731617      2.3577398     -151898.08     -150730.11    
     21200   511.72947      13294.874      6724.9433      48.731617      2.3577398     -151899.93     -150688.78    
     21300   519.03192     -14082.033      6724.9433      48.731617      2.3577398     -151928.48     -150700.05    
     21400   516.37808      49612.592      6724.9433      48.731617      2.3577398     -151951.36     -150729.21    
     21500   505.37763      26400.491      6724.9433      48.731617      2.3577398     -151942.31     -150746.2     
     21600   479.68933     -10682.772      6724.9433      48.731617      2.3577398     -151880.69     -150745.38    
     21700   508.66522      41671.594      6724.9433      48.731617      2.3577398     -151925.87     -150721.98    
     21800   524.3922      -29071.247      6724.9433      48.731617      2.3577398     -151962.06     -150720.95    
     21900   513.3812      -14262.807      6724.9433      48.731617      2.3577398     -151949.26     -150734.21    
     22000   495.76209      96035.999      6724.9433      48.731617      2.3577398     -151937.25     -150763.89    
     22100   479.25253      60362.172      6724.9433      48.731617      2.3577398     -151914.07     -150779.79    
     22200   488.06489     -21490.273      6724.9433      48.731617      2.3577398     -151902.44     -150747.31    
     22300   507.22792      43888.825      6724.9433      48.731617      2.3577398     -151901.25     -150700.76    
     22400   515.9431       33217.93       6724.9433      48.731617      2.3577398     -151876.86     -150655.75    
     22500   510.87015      1309.1132      6724.9433      48.731617      2.3577398     -151876.04     -150666.94    
     22600   499.49029      13732.406      6724.9433      48.731617      2.3577398     -151946.7      -150764.52    
     22700   500.87563      30237.004      6724.9433      48.731617      2.3577398     -151981.56     -150796.11    
     22800   498.65635      51881.152      6724.9433      48.731617      2.3577398     -151967.51     -150787.31    
     22900   508.16776      34918.472      6724.9433      48.731617      2.3577398     -151919.4      -150716.69    
     23000   509.4561       82846.947      6724.9433      48.731617      2.3577398     -151873.91     -150668.15    
     23100   494.77599      42856.656      6724.9433      48.731617      2.3577398     -151862.52     -150691.5     
     23200   500.8892      -36208.895      6724.9433      48.731617      2.3577398     -151934.69     -150749.21    
     23300   480.87626      24406.077      6724.9433      48.731617      2.3577398     -151924.51     -150786.39    
     23400   491.64864     -18992.035      6724.9433      48.731617      2.3577398     -151937.52     -150773.9     
     23500   486.35994      47619.355      6724.9433      48.731617      2.3577398     -151885.66     -150734.57    
     23600   516.68738     -1835.0595      6724.9433      48.731617      2.3577398     -151933.12     -150710.24    
     23700   498.54432      5592.2348      6724.9433      48.731617      2.3577398     -151897.7      -150717.77    
     23800   498.26063      18299.05       6724.9433      48.731617      2.3577398     -151914.45     -150735.18    
     23900   497.13087     -1311.5026      6724.9433      48.731617      2.3577398     -151922.38     -150745.79    
     24000   482.62581      60377.101      6724.9433      48.731617      2.3577398     -151904.26     -150762       
     24100   482.23972      42456.067      6724.9433      48.731617      2.3577398     -151910.12     -150768.77    
     24200   505.68632     -21609.044      6724.9433      48.731617      2.3577398     -151942.34     -150745.5     
     24300   503.49282      45883.34       6724.9433      48.731617      2.3577398     -151892.14     -150700.49    
     24400   495.62645     -2112.4911      6724.9433      48.731617      2.3577398     -151837.31     -150664.28    
     24500   504.45149      20426.513      6724.9433      48.731617      2.3577398     -151852.89     -150658.97    
     24600   492.84358      1214.2849      6724.9433      48.731617      2.3577398     -151912.77     -150746.32    
     24700   495.1057       47822.242      6724.9433      48.731617      2.3577398     -151952.19     -150780.4     
     24800   476.41612      14414.211      6724.9433      48.731617      2.3577398     -151905.23     -150777.66    
     24900   496.88201      29942.066      6724.9433      48.731617      2.3577398     -151894.93     -150718.93    
     25000   509.98868      51697.086      6724.9433      48.731617      2.3577398     -151869.09     -150662.07    
     25100   502.29916     -19204.562      6724.9433      48.731617      2.3577398     -151881.69     -150692.87    
     25200   495.69356      63160.387      6724.9433      48.731617      2.3577398     -151908.05     -150734.86    
     25300   481.25733      32328.378      6724.9433      48.731617      2.3577398     -151917.27     -150778.25    
     25400   497.81757     -13217.583      6724.9433      48.731617      2.3577398     -151955.28     -150777.07    
     25500   518.17806      68396.725      6724.9433      48.731617      2.3577398     -151937.72     -150711.32    
     25600   521.32082     -9007.9829      6724.9433      48.731617      2.3577398     -151900.53     -150666.69    
     25700   492.56512      41066.679      6724.9433      48.731617      2.3577398     -151888.21     -150722.43    
     25800   512.6203       2553.2956      6724.9433      48.731617      2.3577398     -151956.93     -150743.68    
     25900   533.26549      14019.168      6724.9433      48.731617      2.3577398     -152017.72     -150755.6     
     26000   510.4602       57493.499      6724.9433      48.731617      2.3577398     -151989.91     -150781.78    
     26100   488.68837      40972.399      6724.9433      48.731617      2.3577398     -151982.31     -150825.7     
     26200   469.90028      66236.037      6724.9433      48.731617      2.3577398     -151974.47     -150862.33    
     26300   481.42227      77427.546      6724.9433      48.731617      2.3577398     -151949.36     -150809.95    
     26400   515.06743     -19236.004      6724.9433      48.731617      2.3577398     -151960.1      -150741.05    
     26500   502.10912      11673.603      6724.9433      48.731617      2.3577398     -151911.71     -150723.34    
     26600   497.14375      48449.102      6724.9433      48.731617      2.3577398     -151917.37     -150740.75    
     26700   494.75841      15478.039      6724.9433      48.731617      2.3577398     -151964.4      -150793.43    
     26800   492.8142       25426.052      6724.9433      48.731617      2.3577398     -152022.7      -150856.32    
     26900   490.18764      29084.609      6724.9433      48.731617      2.3577398     -152008.7      -150848.54    
     27000   490.03013      53589.063      6724.9433      48.731617      2.3577398     -151930.97     -150771.19    
     27100   504.38349     -4268.1473      6724.9433      48.731617      2.3577398     -151942.01     -150748.25    
     27200   513.58647      45937.305      6724.9433      48.731617      2.3577398     -151958.9      -150743.36    
     27300   485.16166      36125.726      6724.9433      48.731617      2.3577398     -151936.19     -150787.93    
     27400   476.54555      55873.98       6724.9433      48.731617      2.3577398     -151945.83     -150817.96    
     27500   477.57622     -18763.386      6724.9433      48.731617      2.3577398     -151912.93     -150782.62    
     27600   492.27214      56083.032      6724.9433      48.731617      2.3577398     -151865.67     -150700.58    
     27700   514.39817      69710.55       6724.9433      48.731617      2.3577398     -151913.83     -150696.37    
     27800   519.27754      77003.52       6724.9433      48.731617      2.3577398     -151955.87     -150726.86    
     27900   486.15315      15706.907      6724.9433      48.731617      2.3577398     -151945.21     -150794.6     
     28000   490.91042      38823.535      6724.9433      48.731617      2.3577398     -152009.08     -150847.21    
     28100   478.35836      93653.329      6724.9433      48.731617      2.3577398     -151957.07     -150824.9     
     28200   508.66         9588.1686      6724.9433      48.731617      2.3577398     -151902.72     -150698.85    
     28300   509.17383      663.26216      6724.9433      48.731617      2.3577398     -151904.83     -150699.73    
     28400   509.36083      23443.354      6724.9433      48.731617      2.3577398     -151952.3      -150746.77    
     28500   471.47465      30966.535      6724.9433      48.731617      2.3577398     -151914.33     -150798.46    
     28600   499.20271     -1341.2678      6724.9433      48.731617      2.3577398     -151963.55     -150782.06    
     28700   502.59593      22099.302      6724.9433      48.731617      2.3577398     -151909.24     -150719.72    
     28800   518.11727      39359.167      6724.9433      48.731617      2.3577398     -151910.14     -150683.88    
     28900   522.09981     -335.85946      6724.9433      48.731617      2.3577398     -151922.28     -150686.59    
     29000   479.93508      44259.269      6724.9433      48.731617      2.3577398     -151925.69     -150789.8     
     29100   479.3248       64604.255      6724.9433      48.731617      2.3577398     -151945.32     -150810.87    
     29200   494.40555      44030.647      6724.9433      48.731617      2.3577398     -151935.26     -150765.12    
     29300   500.95738     -14509.602      6724.9433      48.731617      2.3577398     -151898.66     -150713.01    
     29400   496.19529      11158.528      6724.9433      48.731617      2.3577398     -151857.63     -150683.25    
     29500   510.18765      38718.079      6724.9433      48.731617      2.3577398     -151892.81     -150685.31    
     29600   480.95717      17029.311      6724.9433      48.731617      2.3577398     -151922.42     -150784.1     
     29700   468.27468     -20373.883      6724.9433      48.731617      2.3577398     -151925.24     -150816.94    
     29800   497.5177       64482.541      6724.9433      48.731617      2.3577398     -151954.96     -150777.45    
     29900   512.24937     -456.34246      6724.9433      48.731617      2.3577398     -151929.3      -150716.93    
     30000   514.05863      19333.996      6724.9433      48.731617      2.3577398     -151926.49     -150709.83    
     30100   513.27217      44313.793      6724.9433      48.731617      2.3577398     -151949.32     -150734.53    
     30200   493.07396      65122.826      6724.9433      48.731617      2.3577398     -151906.43     -150739.44    
     30300   486.24754      13419.218      6724.9433      48.731617      2.3577398     -151868.36     -150717.52    
     30400   515.4864       67897.015      6724.9433      48.731617      2.3577398     -151836.83     -150616.79    
     30500   514.83817      50037.299      6724.9433      48.731617      2.3577398     -151852.98     -150634.48    
     30600   505.85703      4453.64        6724.9433      48.731617      2.3577398     -151907.14     -150709.9     
     30700   492.61105      55646.926      6724.9433      48.731617      2.3577398     -151918.84     -150752.95    
     30800   500.05917      29670.411      6724.9433      48.731617      2.3577398     -151956.65     -150773.13    
     30900   521.99869      56731.485      6724.9433      48.731617      2.3577398     -151990.28     -150754.84    
     31000   500.9685       64422.122      6724.9433      48.731617      2.3577398     -151888.17     -150702.5     
     31100   518.6468       42430.769      6724.9433      48.731617      2.3577398     -151876.49     -150648.98    
     31200   506.57577     -18829.434      6724.9433      48.731617      2.3577398     -151861.57     -150662.62    
     31300   489.47113      49670.451      6724.9433      48.731617      2.3577398     -151914.35     -150755.89    
     31400   481.03733     -14266.276      6724.9433      48.731617      2.3577398     -151908.36     -150769.86    
     31500   500.52629      26689.384      6724.9433      48.731617      2.3577398     -151931.36     -150746.73    
     31600   502.10961      68751.28       6724.9433      48.731617      2.3577398     -151884.6      -150696.22    
     31700   508.6645       42927.26       6724.9433      48.731617      2.3577398     -151874.38     -150670.49    
     31800   503.1158       48519.016      6724.9433      48.731617      2.3577398     -151952.9      -150762.14    
     31900   491.35214      37025.388      6724.9433      48.731617      2.3577398     -151972.28     -150809.37    
     32000   494.79912     -6030.2598      6724.9433      48.731617      2.3577398     -151955.15     -150784.07    
     32100   491.78325     -11997.736      6724.9433      48.731617      2.3577398     -151896.37     -150732.43    
     32200   513.13266      31723.776      6724.9433      48.731617      2.3577398     -151896.23     -150681.77    
     32300   498.71878      246.55682      6724.9433      48.731617      2.3577398     -151887.09     -150706.74    
     32400   501.74416      11000.827      6724.9433      48.731617      2.3577398     -151909.13     -150721.63    
     32500   510.25883      94576.913      6724.9433      48.731617      2.3577398     -151946.11     -150738.45    
     32600   486.24315      42447.726      6724.9433      48.731617      2.3577398     -151922.34     -150771.52    
     32700   505.89562      35605.489      6724.9433      48.731617      2.3577398     -152003.96     -150806.63    
     32800   478.05421      21729.915      6724.9433      48.731617      2.3577398     -151995.31     -150863.86    
     32900   484.98484      46937.028      6724.9433      48.731617      2.3577398     -151996.26     -150848.42    
     33000   513.98089     -18971.72       6724.9433      48.731617      2.3577398     -151975.25     -150758.78    
     33100   520.5465       53210.517      6724.9433      48.731617      2.3577398     -151953.75     -150721.74    
     33200   490.32381      58622.772      6724.9433      48.731617      2.3577398     -151904.13     -150743.65    
     33300   496.39361      40698.512      6724.9433      48.731617      2.3577398     -151945.92     -150771.08    
     33400   478.31278      16527.432      6724.9433      48.731617      2.3577398     -151929.75     -150797.7     
     33500   480.65369      45129.707      6724.9433      48.731617      2.3577398     -151979.66     -150842.07    
     33600   493.62625      25307.418      6724.9433      48.731617      2.3577398     -151989.7      -150821.41    
     33700   521.39749      14908.796      6724.9433      48.731617      2.3577398     -151970.41     -150736.38    
     33800   525.73525      26811.226      6724.9433      48.731617      2.3577398     -151967.91     -150723.62    
     33900   512.43209      39150.785      6724.9433      48.731617      2.3577398     -151954.36     -150741.56    
     34000   497.11126      51846.005      6724.9433      48.731617      2.3577398     -151966.74     -150790.2     
     34100   485.93164      36085.497      6724.9433      48.731617      2.3577398     -152003.42     -150853.33    
     34200   470.68109      27856.306      6724.9433      48.731617      2.3577398     -151988.79     -150874.79    
     34300   496.78108      51007.34       6724.9433      48.731617      2.3577398     -151950.39     -150774.62    
     34400   506.03794      64747.183      6724.9433      48.731617      2.3577398     -151927.81     -150730.14    
     34500   486.08562      30521.994      6724.9433      48.731617      2.3577398     -151866.28     -150715.83    
     34600   493.78452      12941.768      6724.9433      48.731617      2.3577398     -151903.61     -150734.94    
     34700   482.16633      50444.491      6724.9433      48.731617      2.3577398     -151939.36     -150798.19    
     34800   487.42961      58137.244      6724.9433      48.731617      2.3577398     -151986.9      -150833.27    
     34900   503.30934      49929.978      6724.9433      48.731617      2.3577398     -151983.86     -150792.65    
     35000   517.92005      14803.56       6724.9433      48.731617      2.3577398     -151923.62     -150697.83    
     35100   513.30351      37358.252      6724.9433      48.731617      2.3577398     -151922.7      -150707.84    
     35200   505.05573      45474.03       6724.9433      48.731617      2.3577398     -151959.41     -150764.06    
     35300   505.3938      -5782.7098      6724.9433      48.731617      2.3577398     -151983.03     -150786.89    
     35400   490.98932      22003.905      6724.9433      48.731617      2.3577398     -151945.25     -150783.2     
     35500   489.2572       13037.868      6724.9433      48.731617      2.3577398     -151870.62     -150712.66    
     35600   491.27766      55732.693      6724.9433      48.731617      2.3577398     -151811.92     -150649.18    
     35700   512.67231     -18530.98       6724.9433      48.731617      2.3577398     -151909.4      -150696.03    
     35800   505.50085      50428.02       6724.9433      48.731617      2.3577398     -151953.21     -150756.81    
     35900   489.80473      36967.622      6724.9433      48.731617      2.3577398     -151948.77     -150789.52    
     36000   499.14832      28079.408      6724.9433      48.731617      2.3577398     -151980.15     -150798.79    
     36100   491.06867      4277.62        6724.9433      48.731617      2.3577398     -151968.37     -150806.12    
     36200   503.64409      34735.398      6724.9433      48.731617      2.3577398     -151930.73     -150738.72    
     36300   510.54943     -28990.348      6724.9433      48.731617      2.3577398     -151892.67     -150684.32    
     36400   505.79211      28795.582      6724.9433      48.731617      2.3577398     -151904.12     -150707.03    
     36500   489.14375      81812.778      6724.9433      48.731617      2.3577398     -151939.81     -150782.12    
     36600   479.69166      33949.671      6724.9433      48.731617      2.3577398     -151917.82     -150782.5     
     36700   498.34995      18306.182      6724.9433      48.731617      2.3577398     -151927.89     -150748.42    
     36800   493.55645      19650.13       6724.9433      48.731617      2.3577398     -151897.94     -150729.81    
     36900   499.52972     -16239.935      6724.9433      48.731617      2.3577398     -151929.22     -150746.95    
     37000   481.15523      65178.464      6724.9433      48.731617      2.3577398     -151977.33     -150838.55    
     37100   473.05276      31270.938      6724.9433      48.731617      2.3577398     -151978.55     -150858.94    
     37200   495.37445      12855.39       6724.9433      48.731617      2.3577398     -151970.44     -150798.01    
     37300   497.03612      18045.624      6724.9433      48.731617      2.3577398     -151923.91     -150747.54    
     37400   505.75125      42243.319      6724.9433      48.731617      2.3577398     -151923.31     -150726.31    
     37500   524.3019       24836.881      6724.9433      48.731617      2.3577398     -151972.14     -150731.24    
     37600   498.11645      44768.786      6724.9433      48.731617      2.3577398     -151955.64     -150776.72    
     37700   494.1369       33169.237      6724.9433      48.731617      2.3577398     -152027.3      -150857.8     
     37800   480.06129      13988.305      6724.9433      48.731617      2.3577398     -151972.33     -150836.13    
     37900   481.30956      52985.659      6724.9433      48.731617      2.3577398     -151912.48     -150773.33    
     38000   507.48936      35721.914      6724.9433      48.731617      2.3577398     -151935.84     -150734.73    
     38100   522.58348      34569.894      6724.9433      48.731617      2.3577398     -151953.17     -150716.34    
     38200   517.59597      63634.559      6724.9433      48.731617      2.3577398     -151969.32     -150744.3     
     38300   488.01726     -6609.4186      6724.9433      48.731617      2.3577398     -151978.85     -150823.83    
     38400   485.11573      56653.323      6724.9433      48.731617      2.3577398     -152003.42     -150855.26    
     38500   496.68568      3501.5743      6724.9433      48.731617      2.3577398     -151981.79     -150806.25    
     38600   511.43309      23039.507      6724.9433      48.731617      2.3577398     -151975.15     -150764.71    
     38700   493.87824      26474.975      6724.9433      48.731617      2.3577398     -151913.41     -150744.51    
     38800   493.36442      53354.18       6724.9433      48.731617      2.3577398     -151881.69     -150714.02    
     38900   498.65193     -10976.25       6724.9433      48.731617      2.3577398     -151898.89     -150718.69    
     39000   494.07169      9835.6287      6724.9433      48.731617      2.3577398     -151969.72     -150800.37    
     39100   476.17612      20307.898      6724.9433      48.731617      2.3577398     -151952.91     -150825.91    
     39200   510.33321     -33965.954      6724.9433      48.731617      2.3577398     -151990.6      -150782.77    
     39300   511.6012       24965.369      6724.9433      48.731617      2.3577398     -151936.95     -150726.11    
     39400   500.85393      73076.51       6724.9433      48.731617      2.3577398     -151905.31     -150719.91    
     39500   490.78574      18069.74       6724.9433      48.731617      2.3577398     -151890.78     -150729.21    
     39600   501.33591     -13576.833      6724.9433      48.731617      2.3577398     -151911.16     -150724.61    
     39700   485.48528      19084.848      6724.9433      48.731617      2.3577398     -151894.27     -150745.24    
     39800   494.66605      31851.222      6724.9433      48.731617      2.3577398     -151979.37     -150808.61    
     39900   490.06274      43880.784      6724.9433      48.731617      2.3577398     -151989.94     -150830.08    
     40000   483.17555      15763.211      6724.9433      48.731617      2.3577398     -151908.84     -150765.27    
     40100   509.55928     -11116.711      6724.9433      48.731617      2.3577398     -151916.51     -150710.5     
     40200   495.62525      57993.603      6724.9433      48.731617      2.3577398     -151906.17     -150733.14    
     40300   478.11852      41378.157      6724.9433      48.731617      2.3577398     -151920.54     -150788.95    
     40400   481.9831       7154.8999      6724.9433      48.731617      2.3577398     -151944.45     -150803.71    
     40500   499.75865      42411.518      6724.9433      48.731617      2.3577398     -151926.73     -150743.92    
     40600   513.98525      22383.491      6724.9433      48.731617      2.3577398     -151887        -150670.52    
     40700   507.20903     -16996.802      6724.9433      48.731617      2.3577398     -151900.47     -150700.03    
     40800   507.02843      69602.558      6724.9433      48.731617      2.3577398     -151936.33     -150736.31    
     40900   490.9985       7933.4437      6724.9433      48.731617      2.3577398     -151922.8      -150760.72    
     41000   477.30472     -14996.701      6724.9433      48.731617      2.3577398     -151927.29     -150797.63    
     41100   481.14255      63746.733      6724.9433      48.731617      2.3577398     -152025.06     -150886.31    
     41200   480.64349      52011.687      6724.9433      48.731617      2.3577398     -151994.95     -150857.38    
     41300   495.39249      41744.83       6724.9433      48.731617      2.3577398     -151972.92     -150800.45    
     41400   493.29031     -8431.8369      6724.9433      48.731617      2.3577398     -151927.81     -150760.31    
     41500   500.91087      27523.89       6724.9433      48.731617      2.3577398     -151910.96     -150725.43    
     41600   503.33616     -29620.051      6724.9433      48.731617      2.3577398     -151909.73     -150718.46    
     41700   492.93296     -18778.462      6724.9433      48.731617      2.3577398     -151945.8      -150779.15    
     41800   492.156        25404.951      6724.9433      48.731617      2.3577398     -151995.81     -150830.99    
     41900   480.9726       76364.602      6724.9433      48.731617      2.3577398     -151925.69     -150787.35    
     42000   499.97188      21750.77       6724.9433      48.731617      2.3577398     -151918.6      -150735.28    
     42100   506.30763     -9528.4964      6724.9433      48.731617      2.3577398     -151917.65     -150719.34    
     42200   496.01505      83785.846      6724.9433      48.731617      2.3577398     -151894.57     -150720.62    
     42300   492.12481      25012.981      6724.9433      48.731617      2.3577398     -151882.14     -150717.4     
     42400   492.01128      11989.355      6724.9433      48.731617      2.3577398     -151908.64     -150744.17    
     42500   468.77939      50866.803      6724.9433      48.731617      2.3577398     -151904.13     -150794.64    
     42600   489.16346     -1735.0475      6724.9433      48.731617      2.3577398     -151955.75     -150798.01    
     42700   519.11778      18690.612      6724.9433      48.731617      2.3577398     -151959.06     -150730.43    
     42800   538.9539       58405.612      6724.9433      48.731617      2.3577398     -151947.51     -150671.93    
     42900   508.3399       23178.066      6724.9433      48.731617      2.3577398     -151877.09     -150673.97    
     43000   519.51318      28357.52       6724.9433      48.731617      2.3577398     -151930.71     -150701.15    
     43100   506.48869      28130.396      6724.9433      48.731617      2.3577398     -151928.81     -150730.07    
     43200   484.2947      -25598.192      6724.9433      48.731617      2.3577398     -151912.95     -150766.73    
     43300   477.91758      41809.126      6724.9433      48.731617      2.3577398     -151995.05     -150863.93    
     43400   483.82803      82504.386      6724.9433      48.731617      2.3577398     -152050.36     -150905.25    
     43500   487.43063      47661.256      6724.9433      48.731617      2.3577398     -151987.01     -150833.37    
     43600   475.99623     -5177.5082      6724.9433      48.731617      2.3577398     -151892.17     -150765.6     
     43700   490.11368      55157.926      6724.9433      48.731617      2.3577398     -151877.41     -150717.43    
     43800   522.66256      51623.064      6724.9433      48.731617      2.3577398     -151932.03     -150695.01    
     43900   513.32689      51781.151      6724.9433      48.731617      2.3577398     -151909.82     -150694.89    
     44000   478.2719       9903.7192      6724.9433      48.731617      2.3577398     -151884.15     -150752.2     
     44100   492.34655      6298.1039      6724.9433      48.731617      2.3577398     -151970.36     -150805.09    
     44200   489.13245      39212.717      6724.9433      48.731617      2.3577398     -151954.78     -150797.12    
     44300   513.45         31084.007      6724.9433      48.731617      2.3577398     -151919.92     -150704.71    
     44400   514.57446     -19101.482      6724.9433      48.731617      2.3577398     -151901.57     -150683.7     
     44500   504.89364      56183.506      6724.9433      48.731617      2.3577398     -151932.8      -150737.84    
     44600   488.17027     -29244.89       6724.9433      48.731617      2.3577398     -151944.64     -150789.26    
     44700   512.40368      60111.197      6724.9433      48.731617      2.3577398     -151994.58     -150781.84    
     44800   508.81372      37984.834      6724.9433      48.731617      2.3577398     -151938.74     -150734.49    
     44900   502.63512     -7184.3805      6724.9433      48.731617      2.3577398     -151875.95     -150686.33    
     45000   505.08653      14448.464      6724.9433      48.731617      2.3577398     -151910.3      -150714.88    
     45100   494.77233      67351.785      6724.9433      48.731617      2.3577398     -151998.77     -150827.76    
     45200   490.16344      19979.149      6724.9433      48.731617      2.3577398     -151959.66     -150799.56    
     45300   504.24345     -50577.719      6724.9433      48.731617      2.3577398     -151925.69     -150732.27    
     45400   505.92388      37900.327      6724.9433      48.731617      2.3577398     -151887.82     -150690.42    
     45500   504.66786      23211.645      6724.9433      48.731617      2.3577398     -151858.41     -150663.98    
     45600   481.26783      22337.256      6724.9433      48.731617      2.3577398     -151845.27     -150706.22    
     45700   489.34927      3555.2276      6724.9433      48.731617      2.3577398     -151956.15     -150797.97    
     45800   481.43112      16925.897      6724.9433      48.731617      2.3577398     -151951.68     -150812.24    
     45900   497.85927      65371.599      6724.9433      48.731617      2.3577398     -151942.95     -150764.63    
     46000   507.51659      37906.51       6724.9433      48.731617      2.3577398     -151923.58     -150722.41    
     46100   506.02522     -27200.552      6724.9433      48.731617      2.3577398     -151927.05     -150729.41    
     46200   491.27246      11262.72       6724.9433      48.731617      2.3577398     -151902.64     -150739.91    
     46300   493.68917     -22720.291      6724.9433      48.731617      2.3577398     -151933.54     -150765.1     
     46400   490.70007      68670.927      6724.9433      48.731617      2.3577398     -151991.84     -150830.47    
     46500   464.14409      34661.891      6724.9433      48.731617      2.3577398     -151946.58     -150848.07    
     46600   483.04475      8525.8084      6724.9433      48.731617      2.3577398     -151908.25     -150764.99    
     46700   519.0951       14719.486      6724.9433      48.731617      2.3577398     -151963.91     -150735.34    
     46800   507.24407      58251.883      6724.9433      48.731617      2.3577398     -151934.66     -150734.13    
     46900   487.61472      98910.671      6724.9433      48.731617      2.3577398     -151856.04     -150701.97    
     47000   538.94979     -4285.1305      6724.9433      48.731617      2.3577398     -151910.04     -150634.48    
     47100   510.79454      7162.3792      6724.9433      48.731617      2.3577398     -151899.03     -150690.1     
     47200   493.28837      48673.126      6724.9433      48.731617      2.3577398     -151915.29     -150747.8     
     47300   499.50184      1095.3576      6724.9433      48.731617      2.3577398     -151932.73     -150750.52    
     47400   513.61659      29555.642      6724.9433      48.731617      2.3577398     -151933.28     -150717.67    
     47500   524.39116      18260.91       6724.9433      48.731617      2.3577398     -151921.76     -150680.65    
     47600   495.80058      11898.865      6724.9433      48.731617      2.3577398     -151895        -150721.56    
     47700   498.6366       42250.842      6724.9433      48.731617      2.3577398     -151974.9      -150794.74    
     47800   488.35069      9629.2146      6724.9433      48.731617      2.3577398     -151949.17     -150793.36    
     47900   503.29803      7686.822       6724.9433      48.731617      2.3577398     -151956.61     -150765.42    
     48000   506.06442      41706.023      6724.9433      48.731617      2.3577398     -151923.61     -150725.87    
     48100   511.98965      60999.291      6724.9433      48.731617      2.3577398     -151843.52     -150631.76    
     48200   526.99235      63884.175      6724.9433      48.731617      2.3577398     -151891.83     -150644.56    
     48300   499.23629      48242.912      6724.9433      48.731617      2.3577398     -151895.99     -150714.42    
     48400   513.57687      30633.583      6724.9433      48.731617      2.3577398     -151979.26     -150763.74    
     48500   514.54654     -25122.839      6724.9433      48.731617      2.3577398     -151976.23     -150758.42    
     48600   496.28427      13267.126      6724.9433      48.731617      2.3577398     -151916.89     -150742.3     
     48700   483.21451      9486.1719      6724.9433      48.731617      2.3577398     -151847.21     -150703.55    
     48800   532.28291     -39747.92       6724.9433      48.731617      2.3577398     -151915.01     -150655.22    
     48900   534.6348       19990.303      6724.9433      48.731617      2.3577398     -151928.15     -150662.79    
     49000   497.22694     -23762.624      6724.9433      48.731617      2.3577398     -151928        -150751.18    
     49100   481.28037      40465.405      6724.9433      48.731617      2.3577398     -151914.67     -150775.59    
     49200   510.37263      36821.662      6724.9433      48.731617      2.3577398     -151973.2      -150765.27    
     49300   528.66818      50425.616      6724.9433      48.731617      2.3577398     -151977.83     -150726.6     
     49400   544.69819      54059.171      6724.9433      48.731617      2.3577398     -151934.17     -150645       
     49500   532.58066     -30826.743      6724.9433      48.731617      2.3577398     -151909.8      -150649.31    
     49600   494.21757      11251.339      6724.9433      48.731617      2.3577398     -151893.82     -150724.13    
     49700   498.94249      16563.218      6724.9433      48.731617      2.3577398     -151930.79     -150749.91    
     49800   502.22773      3201.2208      6724.9433      48.731617      2.3577398     -151944.2      -150755.55    
     49900   503.85944      32096.076      6724.9433      48.731617      2.3577398     -151925.51     -150733       
     50000   515.22031      47505.642      6724.9433      48.731617      2.3577398     -151908.35     -150688.94    
     50100   516.60598      45274.496      6724.9433      48.731617      2.3577398     -151897.04     -150674.36    
     50200   482.17149     -4224.204       6724.9433      48.731617      2.3577398     -151897.59     -150756.4     
     50300   481.21252      27115.429      6724.9433      48.731617      2.3577398     -151918.87     -150779.95    
     50400   491.58757      68181.719      6724.9433      48.731617      2.3577398     -151913.11     -150749.64    
     50500   501.04056     -31705.205      6724.9433      48.731617      2.3577398     -151895.01     -150709.17    
     50600   530.44966     -20486.245      6724.9433      48.731617      2.3577398     -151897.02     -150641.57    
     50700   511.46274      97425.581      6724.9433      48.731617      2.3577398     -151843.91     -150633.39    
     50800   487.72303      23201.446      6724.9433      48.731617      2.3577398     -151877.99     -150723.67    
     50900   500.58847     -31054.502      6724.9433      48.731617      2.3577398     -151961.39     -150776.61    
     51000   496.84119      23681.974      6724.9433      48.731617      2.3577398     -151977.2      -150801.29    
     51100   481.18576      46751.092      6724.9433      48.731617      2.3577398     -151927.72     -150788.87    
     51200   503.61325     -8857.5714      6724.9433      48.731617      2.3577398     -151900.5      -150708.57    
     51300   526.76531      68718.072      6724.9433      48.731617      2.3577398     -151910.29     -150663.57    
     51400   511.05576      29314.985      6724.9433      48.731617      2.3577398     -151898.62     -150689.07    
     51500   500.06428      11584.373      6724.9433      48.731617      2.3577398     -151912.29     -150728.75    
     51600   504.43623      1341.7631      6724.9433      48.731617      2.3577398     -151929.02     -150735.14    
     51700   497.64253      39017.578      6724.9433      48.731617      2.3577398     -151914.23     -150736.42    
     51800   498.82738      22005.513      6724.9433      48.731617      2.3577398     -151909.8      -150729.19    
     51900   504.73244     -16965.81       6724.9433      48.731617      2.3577398     -151914.24     -150719.66    
     52000   488.99853      46550.391      6724.9433      48.731617      2.3577398     -151886.34     -150729       
     52100   483.98474      16166.556      6724.9433      48.731617      2.3577398     -151866        -150720.52    
     52200   509.05062      24668.179      6724.9433      48.731617      2.3577398     -151919.69     -150714.89    
     52300   472.11387      8435.4511      6724.9433      48.731617      2.3577398     -151878.12     -150760.74    
     52400   486.84198      59938.232      6724.9433      48.731617      2.3577398     -151966.86     -150814.62    
     52500   496.51076      37081.33       6724.9433      48.731617      2.3577398     -152002.21     -150827.09    
     52600   501.47927     -18953.148      6724.9433      48.731617      2.3577398     -151905.6      -150718.72    
     52700   495.74051      54213.432      6724.9433      48.731617      2.3577398     -151851.52     -150678.22    
     52800   508.58997      20833.794      6724.9433      48.731617      2.3577398     -151904.96     -150701.25    
     52900   496.53633      26755.211      6724.9433      48.731617      2.3577398     -151945.09     -150769.9     
     53000   491.09431      17451.268      6724.9433      48.731617      2.3577398     -151950.89     -150788.58    
     53100   510.98065     -3619.5208      6724.9433      48.731617      2.3577398     -151970.43     -150761.05    
     53200   522.09971      5487.4306      6724.9433      48.731617      2.3577398     -151938.23     -150702.54    
     53300   527.9551       41274.626      6724.9433      48.731617      2.3577398     -151840.42     -150590.88    
     53400   527.4224       33440.624      6724.9433      48.731617      2.3577398     -151846.9      -150598.62    
     53500   499.50138      6002.5662      6724.9433      48.731617      2.3577398     -151850.24     -150668.04    
     53600   496.46228      36326.721      6724.9433      48.731617      2.3577398     -151895.85     -150720.84    
     53700   498.93365      45508.701      6724.9433      48.731617      2.3577398     -151937.26     -150756.4     
     53800   510.29635      57097.615      6724.9433      48.731617      2.3577398     -151953.09     -150745.34    
     53900   513.451       -7409.157       6724.9433      48.731617      2.3577398     -151899.33     -150684.11    
     54000   518.47137      70021.482      6724.9433      48.731617      2.3577398     -151849.33     -150622.23    
     54100   509.01344     -19257.397      6724.9433      48.731617      2.3577398     -151867.53     -150662.81    
     54200   500.01406      4581.4143      6724.9433      48.731617      2.3577398     -151933.37     -150749.96    
     54300   514.76366      29048.956      6724.9433      48.731617      2.3577398     -151970.35     -150752.02    
     54400   493.82178      40158.782      6724.9433      48.731617      2.3577398     -151920.89     -150752.13    
     54500   504.25432     -6459.8069      6724.9433      48.731617      2.3577398     -151913.75     -150720.3     
     54600   494.72445      51520.447      6724.9433      48.731617      2.3577398     -151837.76     -150666.86    
     54700   486.03415      79497.499      6724.9433      48.731617      2.3577398     -151768.69     -150618.36    
     54800   515.13669     -5236.9926      6724.9433      48.731617      2.3577398     -151851.06     -150631.85    
     54900   510.81035     -14022.001      6724.9433      48.731617      2.3577398     -151946.35     -150737.38    
     55000   503.54811      68948.434      6724.9433      48.731617      2.3577398     -151960.42     -150768.64    
     55100   499.39254      43423.208      6724.9433      48.731617      2.3577398     -151939.3      -150757.35    
     55200   521.70294     -3409.2652      6724.9433      48.731617      2.3577398     -151940.54     -150705.79    
     55300   521.49805      5707.9028      6724.9433      48.731617      2.3577398     -151918.95     -150684.69    
     55400   500.64442      6317.6489      6724.9433      48.731617      2.3577398     -151950.24     -150765.34    
     55500   474.89478      86230.587      6724.9433      48.731617      2.3577398     -151934.29     -150810.33    
     55600   506.82204     -64778.644      6724.9433      48.731617      2.3577398     -151986.75     -150787.23    
     55700   494.94158      55800.364      6724.9433      48.731617      2.3577398     -151926.74     -150755.33    
     55800   502.56065      34377.369      6724.9433      48.731617      2.3577398     -151902.31     -150712.87    
     55900   537.63431      17073.939      6724.9433      48.731617      2.3577398     -151879.4      -150606.95    
     56000   521.79599      57778.093      6724.9433      48.731617      2.3577398     -151835.89     -150600.92    
     56100   511.1592       59671.492      6724.9433      48.731617      2.3577398     -151876.9      -150667.11    
     56200   498.94892      13422.247      6724.9433      48.731617      2.3577398     -151895.63     -150714.73    
     56300   491.13446      99.03407       6724.9433      48.731617      2.3577398     -151901.85     -150739.45    
     56400   497.08626      18850.523      6724.9433      48.731617      2.3577398     -151916.89     -150740.4     
     56500   521.60884     -15283.73       6724.9433      48.731617      2.3577398     -151930.07     -150695.55    
     56600   521.27269     -9566.8602      6724.9433      48.731617      2.3577398     -151878.66     -150644.93    
     56700   499.9048       38578.34       6724.9433      48.731617      2.3577398     -151877.23     -150694.08    
     56800   502.75179      43206.39       6724.9433      48.731617      2.3577398     -151953.07     -150763.18    
     56900   508.62688      31820.356      6724.9433      48.731617      2.3577398     -151980.3      -150776.5     
     57000   503.1969       28127.171      6724.9433      48.731617      2.3577398     -151969.59     -150778.65    
     57100   491.37975      42640.236      6724.9433      48.731617      2.3577398     -151938.4      -150775.42    
     57200   523.81816      77506.239      6724.9433      48.731617      2.3577398     -151947.57     -150707.82    
     57300   530.75216     -12259.201      6724.9433      48.731617      2.3577398     -151921.17     -150665       
     57400   511.40114      42999.798      6724.9433      48.731617      2.3577398     -151920.1      -150709.73    
     57500   484.90986      1942.5209      6724.9433      48.731617      2.3577398     -151922.29     -150774.62    
     57600   482.89905      2455.6573      6724.9433      48.731617      2.3577398     -151914.69     -150771.79    
     57700   496.12548      53404.335      6724.9433      48.731617      2.3577398     -151913.32     -150739.11    
     57800   509.97218      32696.678      6724.9433      48.731617      2.3577398     -151903.08     -150696.09    
     57900   505.562        4456.1028      6724.9433      48.731617      2.3577398     -151884.71     -150688.16    
     58000   477.83188     -12264.944      6724.9433      48.731617      2.3577398     -151909.19     -150778.28    
     58100   510.67444      33797.612      6724.9433      48.731617      2.3577398     -152020.53     -150811.89    
     58200   495.88552      10064.896      6724.9433      48.731617      2.3577398     -151976.23     -150802.59    
     58300   512.41315      40162.4        6724.9433      48.731617      2.3577398     -151958.72     -150745.96    
     58400   514.58022      17211.793      6724.9433      48.731617      2.3577398     -151907.86     -150689.97    
     58500   508.58786     -6700.4999      6724.9433      48.731617      2.3577398     -151890.77     -150687.06    
     58600   478.8388       44304.453      6724.9433      48.731617      2.3577398     -151923.24     -150789.95    
     58700   481.34091     -31444.528      6724.9433      48.731617      2.3577398     -151959.59     -150820.37    
     58800   486.66362      11648.118      6724.9433      48.731617      2.3577398     -151931.56     -150779.74    
     58900   503.65054      53386.172      6724.9433      48.731617      2.3577398     -151911.32     -150719.3     
     59000   511.24378      6330.3729      6724.9433      48.731617      2.3577398     -151911.04     -150701.05    
     59100   520.13659      34107.47       6724.9433      48.731617      2.3577398     -151949.88     -150718.84    
     59200   473.91338     -14658.064      6724.9433      48.731617      2.3577398     -151946.15     -150824.51    
     59300   478.07266      30776.89       6724.9433      48.731617      2.3577398     -151971.64     -150840.16    
     59400   474.56524      24477.226      6724.9433      48.731617      2.3577398     -151913.94     -150790.75    
     59500   496.70525      51670.946      6724.9433      48.731617      2.3577398     -151913.74     -150738.15    
     59600   494.06187     -10002.404      6724.9433      48.731617      2.3577398     -151891.94     -150722.61    
     59700   496.60843      62406.212      6724.9433      48.731617      2.3577398     -151895.8      -150720.45    
     59800   484.41929      33646.808      6724.9433      48.731617      2.3577398     -151919.74     -150773.23    
     59900   477.71542      80957.554      6724.9433      48.731617      2.3577398     -151979.5      -150848.86    
     60000   498.70653     -16321.967      6724.9433      48.731617      2.3577398     -151997.83     -150817.51    
     60100   489.89673      20523.06       6724.9433      48.731617      2.3577398     -151920.82     -150761.35    
     60200   497.8192       5118.3505      6724.9433      48.731617      2.3577398     -151922.3      -150744.08    
     60300   498.56908      17974.879      6724.9433      48.731617      2.3577398     -151925.02     -150745.02    
     60400   499.71601      6268.7877      6724.9433      48.731617      2.3577398     -151928.99     -150746.29    
     60500   523.23208      18164.646      6724.9433      48.731617      2.3577398     -151920.92     -150682.55    
     60600   497.20834     -15343.908      6724.9433      48.731617      2.3577398     -151815.09     -150638.32    
     60700   485.14701      83051.423      6724.9433      48.731617      2.3577398     -151820.81     -150672.58    
     60800   502.05239     -11260.891      6724.9433      48.731617      2.3577398     -151932.33     -150744.09    
     60900   503.74765      31658.215      6724.9433      48.731617      2.3577398     -151940.62     -150748.37    
     61000   504.69884      45516.374      6724.9433      48.731617      2.3577398     -151930.73     -150736.23    
     61100   513.42866      20731.794      6724.9433      48.731617      2.3577398     -151914.91     -150699.74    
     61200   519.67104      27329.194      6724.9433      48.731617      2.3577398     -151874.87     -150644.93    
     61300   526.49802      53995.722      6724.9433      48.731617      2.3577398     -151881.28     -150635.18    
     61400   510.2847       22817.382      6724.9433      48.731617      2.3577398     -151931.6      -150723.88    
     61500   500.68419     -3462.098       6724.9433      48.731617      2.3577398     -151948.58     -150763.58    
     61600   496.6953       58074.287      6724.9433      48.731617      2.3577398     -151945.52     -150769.96    
     61700   487.52404      16802.625      6724.9433      48.731617      2.3577398     -151913.56     -150759.7     
     61800   507.76787      32835.458      6724.9433      48.731617      2.3577398     -151910.29     -150708.53    
     61900   522.44063      18253.59       6724.9433      48.731617      2.3577398     -151905.39     -150668.9     
     62000   503.69277     -13890.578      6724.9433      48.731617      2.3577398     -151917.64     -150725.52    
     62100   475.48637      27916.486      6724.9433      48.731617      2.3577398     -151920.57     -150795.21    
     62200   503.96668      73641.014      6724.9433      48.731617      2.3577398     -151969.21     -150776.44    
     62300   497.09394      45653.096      6724.9433      48.731617      2.3577398     -151908.03     -150731.52    
     62400   507.3031       9104.0216      6724.9433      48.731617      2.3577398     -151913.43     -150712.77    
     62500   519.86844     -2102.6538      6724.9433      48.731617      2.3577398     -151950.51     -150720.11    
     62600   467.20822      38882.436      6724.9433      48.731617      2.3577398     -151910.05     -150804.28    
     62700   467.1972       21008.553      6724.9433      48.731617      2.3577398     -151964.63     -150858.89    
     62800   488.70039      37531.367      6724.9433      48.731617      2.3577398     -151976.14     -150819.5     
     62900   498.55492      18385.473      6724.9433      48.731617      2.3577398     -151953.96     -150774       
     63000   497.82967     -10825.589      6724.9433      48.731617      2.3577398     -151919.7      -150741.45    
     63100   494.15522      30480.008      6724.9433      48.731617      2.3577398     -151901.93     -150732.38    
     63200   497.81028      9881.145       6724.9433      48.731617      2.3577398     -151878.77     -150700.57    
     63300   529.54708      30340.298      6724.9433      48.731617      2.3577398     -151898.77     -150645.45    
     63400   519.79119      20607.587      6724.9433      48.731617      2.3577398     -151885.09     -150654.87    
     63500   493.56088      13347.495      6724.9433      48.731617      2.3577398     -151908.78     -150740.64    
     63600   482.83776      28163.043      6724.9433      48.731617      2.3577398     -151912.42     -150769.66    
     63700   509.00765      22521.326      6724.9433      48.731617      2.3577398     -151956.27     -150751.57    
     63800   498.02505     -1194.0178      6724.9433      48.731617      2.3577398     -151885.62     -150706.91    
     63900   502.902        17327.278      6724.9433      48.731617      2.3577398     -151832.81     -150642.56    
     64000   499.10083      15806.889      6724.9433      48.731617      2.3577398     -151839.75     -150658.49    
     64100   512.84258      29253.364      6724.9433      48.731617      2.3577398     -151978.83     -150765.05    
     64200   474.88122      25557.594      6724.9433      48.731617      2.3577398     -151917.08     -150793.15    
     64300   498.96723      18106.122      6724.9433      48.731617      2.3577398     -151940.71     -150759.78    
     64400   524.88811      55157.589      6724.9433      48.731617      2.3577398     -151946.24     -150703.95    
     64500   508.39764      15081.777      6724.9433      48.731617      2.3577398     -151895.75     -150692.49    
[...]
    384200   515.83294      47223.243      6724.9433      48.731617      2.3577398     -151897.18     -150676.33    
    384300   488.56982      52499.566      6724.9433      48.731617      2.3577398     -151929.08     -150772.75    
    384400   506.58878     -7861.2238      6724.9433      48.731617      2.3577398     -152005.79     -150806.81    
    384500   499.403        6608.8419      6724.9433      48.731617      2.3577398     -152012.94     -150830.97    
    384600   494.73936      57205.919      6724.9433      48.731617      2.3577398     -152008.1      -150837.17    
    384700   523.22239      91496.636      6724.9433      48.731617      2.3577398     -152011.75     -150773.4     
    384800   500.35647     -7857.906       6724.9433      48.731617      2.3577398     -151907.28     -150723.05    
    384900   497.11423      27826.77       6724.9433      48.731617      2.3577398     -151920.81     -150744.26    
    385000   501.80319      65238.881      6724.9433      48.731617      2.3577398     -151996.46     -150808.81    
    385100   478.45488      33759.004      6724.9433      48.731617      2.3577398     -151984.83     -150852.44    
    385200   504.71859      34407.623      6724.9433      48.731617      2.3577398     -152027.25     -150832.71    
    385300   519.82732      1040.0868      6724.9433      48.731617      2.3577398     -152022.46     -150792.15    
    385400   494.51022      62894.804      6724.9433      48.731617      2.3577398     -151934.9      -150764.51    
    385500   515.47537      45192.68       6724.9433      48.731617      2.3577398     -151958.43     -150738.42    
    385600   512.33973     -9488.5932      6724.9433      48.731617      2.3577398     -151913.38     -150700.79    
    385700   518.88755      2469.0595      6724.9433      48.731617      2.3577398     -151969.14     -150741.05    
    385800   500.13942      42893.413      6724.9433      48.731617      2.3577398     -151998.39     -150814.68    
    385900   497.89878      27682.498      6724.9433      48.731617      2.3577398     -151999.76     -150821.35    
    386000   501.68778      83958.171      6724.9433      48.731617      2.3577398     -151970.43     -150783.05    
    386100   523.45433      25575.76       6724.9433      48.731617      2.3577398     -151959.62     -150720.73    
    386200   497.90274      1788.2074      6724.9433      48.731617      2.3577398     -151864.59     -150686.17    
    386300   498.25902      59410.643      6724.9433      48.731617      2.3577398     -151900.52     -150721.26    
    386400   507.18824      9484.7889      6724.9433      48.731617      2.3577398     -152005.62     -150805.23    
    386500   509.94903      33552.338      6724.9433      48.731617      2.3577398     -152050.17     -150843.24    
    386600   486.48167      43532.968      6724.9433      48.731617      2.3577398     -151996.38     -150844.99    
    386700   498.44453     -22359.662      6724.9433      48.731617      2.3577398     -151961.74     -150782.04    
    386800   499.03184      35024.018      6724.9433      48.731617      2.3577398     -151908.29     -150727.2     
    386900   516.66459      88194.813      6724.9433      48.731617      2.3577398     -151962.08     -150739.26    
    387000   512.24987     -35216.994      6724.9433      48.731617      2.3577398     -151976.52     -150764.14    
    387100   489.34705      8928.2104      6724.9433      48.731617      2.3577398     -151953.04     -150794.87    
    387200   494.84071      14957.288      6724.9433      48.731617      2.3577398     -151976.94     -150805.77    
    387300   496.57089      24078.446      6724.9433      48.731617      2.3577398     -151981.38     -150806.11    
    387400   508.71921      36530.359      6724.9433      48.731617      2.3577398     -151999.67     -150795.65    
    387500   492.85645      57183.401      6724.9433      48.731617      2.3577398     -151977.6      -150811.13    
    387600   484.63144      34705.909      6724.9433      48.731617      2.3577398     -151998.56     -150851.55    
    387700   499.57639      36713.724      6724.9433      48.731617      2.3577398     -152007.87     -150825.49    
    387800   522.734        64850.94       6724.9433      48.731617      2.3577398     -151998.98     -150761.79    
    387900   496.19214     -29283.317      6724.9433      48.731617      2.3577398     -151921.7      -150747.33    
    388000   500.11587      20442.564      6724.9433      48.731617      2.3577398     -151962.83     -150779.17    
    388100   487.00337      65215.963      6724.9433      48.731617      2.3577398     -152024.44     -150871.82    
    388200   477.03525      63960.415      6724.9433      48.731617      2.3577398     -151994.29     -150865.26    
    388300   487.92856     -49446.177      6724.9433      48.731617      2.3577398     -151968.17     -150813.36    
    388400   508.72955      18950.304      6724.9433      48.731617      2.3577398     -151985.45     -150781.41    
    388500   496.1225       22318.658      6724.9433      48.731617      2.3577398     -151945.84     -150771.64    
    388600   493.06223      2325.3105      6724.9433      48.731617      2.3577398     -151941.26     -150774.29    
    388700   491.75329      27518.617      6724.9433      48.731617      2.3577398     -151995.06     -150831.2     
    388800   483.47606      16194.952      6724.9433      48.731617      2.3577398     -152050.68     -150906.4     
    388900   496.52679     -7192.134       6724.9433      48.731617      2.3577398     -152033.46     -150858.29    
    389000   508.34372      15981.987      6724.9433      48.731617      2.3577398     -152007.13     -150804       
    389100   496.16479      4957.9594      6724.9433      48.731617      2.3577398     -151950.91     -150776.6     
    389200   496.69144      67092.473      6724.9433      48.731617      2.3577398     -151923.57     -150748.02    
    389300   499.70299     -6895.5484      6724.9433      48.731617      2.3577398     -151933.28     -150750.6     
    389400   513.22571      41303.516      6724.9433      48.731617      2.3577398     -152035.57     -150820.89    
    389500   484.10935      73366.494      6724.9433      48.731617      2.3577398     -152017.82     -150872.05    
    389600   506.98072      27893.861      6724.9433      48.731617      2.3577398     -152044.94     -150845.03    
    389700   508.49786      58549.593      6724.9433      48.731617      2.3577398     -151975.09     -150771.6     
    389800   500.62288      17238.969      6724.9433      48.731617      2.3577398     -151942.93     -150758.07    
    389900   486.39372      26478.463      6724.9433      48.731617      2.3577398     -151907.44     -150756.26    
    390000   492.69188      34040.87       6724.9433      48.731617      2.3577398     -151915.6      -150749.51    
    390100   491.60239      49062.969      6724.9433      48.731617      2.3577398     -151969.04     -150805.53    
    390200   470.92865     -2025.7864      6724.9433      48.731617      2.3577398     -151975.79     -150861.22    
    390300   515.109        21227.867      6724.9433      48.731617      2.3577398     -152059.91     -150840.76    
    390400   503.56148      42568.103      6724.9433      48.731617      2.3577398     -151964.35     -150772.54    
    390500   511.34979     -1439.0821      6724.9433      48.731617      2.3577398     -151946.54     -150736.29    
    390600   522.30088      13565.941      6724.9433      48.731617      2.3577398     -151992.03     -150755.87    
    390700   513.56154      33469.222      6724.9433      48.731617      2.3577398     -152013.62     -150798.14    
    390800   500.14307      35815.856      6724.9433      48.731617      2.3577398     -152005.56     -150821.84    
    390900   476.42619      48232.677      6724.9433      48.731617      2.3577398     -151940.08     -150812.49    
    391000   509.05399      20940.516      6724.9433      48.731617      2.3577398     -151975.12     -150770.31    
    391100   522.94775      32990.238      6724.9433      48.731617      2.3577398     -151906.73     -150669.04    
    391200   533.7082       3098.3354      6724.9433      48.731617      2.3577398     -151952.23     -150689.06    
    391300   521.85144      30269.008      6724.9433      48.731617      2.3577398     -151990.53     -150755.43    
    391400   486.6002       14173.471      6724.9433      48.731617      2.3577398     -151941.19     -150789.52    
    391500   483.91873     -7843.4305      6724.9433      48.731617      2.3577398     -151954.53     -150809.21    
    391600   492.98685      20209.264      6724.9433      48.731617      2.3577398     -151994.46     -150827.68    
    391700   495.09705      122130.81      6724.9433      48.731617      2.3577398     -152035.57     -150863.79    
    391800   495.61615     -39278.222      6724.9433      48.731617      2.3577398     -152065.56     -150892.55    
    391900   508.11001      67298.969      6724.9433      48.731617      2.3577398     -152041.25     -150838.68    
    392000   503.76323      60846.897      6724.9433      48.731617      2.3577398     -151964.25     -150771.97    
    392100   490.68258     -1035.7385      6724.9433      48.731617      2.3577398     -151918.17     -150756.84    
    392200   494.95825      21092.793      6724.9433      48.731617      2.3577398     -151939.87     -150768.42    
    392300   470.16736      38410.2        6724.9433      48.731617      2.3577398     -151939.14     -150826.36    
    392400   479.33092      16918.271      6724.9433      48.731617      2.3577398     -152033.41     -150898.95    
    392500   488.39069      30135.237      6724.9433      48.731617      2.3577398     -152038.77     -150882.87    
    392600   500.47194     -8054.0312      6724.9433      48.731617      2.3577398     -151974.06     -150789.56    
    392700   498.5203       99550.527      6724.9433      48.731617      2.3577398     -151946.42     -150766.54    
    392800   481.94314     -9439.5         6724.9433      48.731617      2.3577398     -151903.24     -150762.59    
    392900   501.56331      22726.066      6724.9433      48.731617      2.3577398     -151987.6      -150800.52    
    393000   485.19752      90226.827      6724.9433      48.731617      2.3577398     -152003.65     -150855.3     
    393100   494.45414      75982.815      6724.9433      48.731617      2.3577398     -152018.98     -150848.72    
    393200   476.57433     -28477.162      6724.9433      48.731617      2.3577398     -151896.3      -150768.36    
    393300   522.21764      51130.936      6724.9433      48.731617      2.3577398     -151952.53     -150716.57    
    393400   510.80351     -6419.2053      6724.9433      48.731617      2.3577398     -151951.61     -150742.66    
    393500   518.7565       29769.24       6724.9433      48.731617      2.3577398     -152016.01     -150788.24    
    393600   505.96429      30605.347      6724.9433      48.731617      2.3577398     -152035.22     -150837.73    
    393700   469.28613     -8134.5257      6724.9433      48.731617      2.3577398     -151969.36     -150858.67    
    393800   507.55219      41763.097      6724.9433      48.731617      2.3577398     -151982.39     -150781.14    
    393900   507.73931      42962.347      6724.9433      48.731617      2.3577398     -151928.67     -150726.97    
    394000   502.13674      21656.727      6724.9433      48.731617      2.3577398     -151952.01     -150763.57    
    394100   490.64203      52397.456      6724.9433      48.731617      2.3577398     -151994.95     -150833.72    
    394200   490.28427      32036.302      6724.9433      48.731617      2.3577398     -151991.21     -150830.82    
    394300   503.91578     -9888.6626      6724.9433      48.731617      2.3577398     -151973.47     -150780.82    
    394400   497.23662     -9469.7961      6724.9433      48.731617      2.3577398     -151931.17     -150754.33    
    394500   491.56084      52201.973      6724.9433      48.731617      2.3577398     -151920.95     -150757.54    
    394600   500.12126      59060.298      6724.9433      48.731617      2.3577398     -151951.05     -150767.38    
    394700   507.2431      -56210.312      6724.9433      48.731617      2.3577398     -151993.5      -150792.98    
    394800   480.07057      27483.321      6724.9433      48.731617      2.3577398     -151951.63     -150815.42    
    394900   476.45335      8708.2441      6724.9433      48.731617      2.3577398     -151946.03     -150818.37    
    395000   502.7457       43105.126      6724.9433      48.731617      2.3577398     -151967.33     -150777.45    
    395100   507.37977      51957.527      6724.9433      48.731617      2.3577398     -151926.16     -150725.31    
    395200   507.06176      12518.011      6724.9433      48.731617      2.3577398     -151941.15     -150741.06    
    395300   486.50549      57912.897      6724.9433      48.731617      2.3577398     -151967.19     -150815.75    
    395400   490.46763      4696.4369      6724.9433      48.731617      2.3577398     -152006.69     -150845.86    
    395500   495.90001     -13355.319      6724.9433      48.731617      2.3577398     -152002.34     -150828.66    
    395600   490.42686      21764.936      6724.9433      48.731617      2.3577398     -151927.85     -150767.12    
    395700   502.87837      46828.317      6724.9433      48.731617      2.3577398     -151942.11     -150751.92    
    395800   511.4188      -16559.712      6724.9433      48.731617      2.3577398     -151979.11     -150768.7     
    395900   495.83217      31912.169      6724.9433      48.731617      2.3577398     -151968.96     -150795.44    
    396000   488.85764      55051.014      6724.9433      48.731617      2.3577398     -152003.58     -150846.57    
    396100   480.39397      17480.824      6724.9433      48.731617      2.3577398     -152056.13     -150919.15    
    396200   472.18269     -20572.017      6724.9433      48.731617      2.3577398     -152018.66     -150901.11    
    396300   505.13679      3859.4057      6724.9433      48.731617      2.3577398     -151998.56     -150803.02    
    396400   495.71866      54650.641      6724.9433      48.731617      2.3577398     -151963.01     -150789.77    
    396500   498.15962     -2400.9165      6724.9433      48.731617      2.3577398     -151959.36     -150780.33    
    396600   501.04419      44912.969      6724.9433      48.731617      2.3577398     -151992.06     -150806.2     
    396700   488.21744      29120.114      6724.9433      48.731617      2.3577398     -151988.78     -150833.29    
    396800   477.21013     -29340.985      6724.9433      48.731617      2.3577398     -151993.62     -150864.17    
    396900   465.8026       9660.8511      6724.9433      48.731617      2.3577398     -151963.12     -150860.68    
    397000   475.27248      57243.753      6724.9433      48.731617      2.3577398     -151908.27     -150783.42    
    397100   512.51332      38389.192      6724.9433      48.731617      2.3577398     -151946.16     -150733.16    
    397200   520.27888      7134.3488      6724.9433      48.731617      2.3577398     -151968.31     -150736.93    
    397300   500.09509      53793.514      6724.9433      48.731617      2.3577398     -151964.92     -150781.31    
    397400   479.75071     -11322.995      6724.9433      48.731617      2.3577398     -152007.03     -150871.57    
    397500   488.56387      93702.172      6724.9433      48.731617      2.3577398     -152026.12     -150869.81    
    397600   496.96773      439.15117      6724.9433      48.731617      2.3577398     -152005.93     -150829.73    
    397700   491.28102     -46947.265      6724.9433      48.731617      2.3577398     -151957.6      -150794.85    
    397800   516.8654       10594.044      6724.9433      48.731617      2.3577398     -151985.89     -150762.6     
    397900   499.0598       4937.0021      6724.9433      48.731617      2.3577398     -151940.67     -150759.52    
    398000   484.65837      22690.201      6724.9433      48.731617      2.3577398     -151951.88     -150804.81    
    398100   493.54984     -27970.415      6724.9433      48.731617      2.3577398     -152004.65     -150836.53    
    398200   477.19723      59642.782      6724.9433      48.731617      2.3577398     -151993.23     -150863.81    
    398300   494.4015       11530.147      6724.9433      48.731617      2.3577398     -151993.65     -150823.52    
    398400   526.32332      26836.922      6724.9433      48.731617      2.3577398     -151989.48     -150743.8     
    398500   523.636        5680.3556      6724.9433      48.731617      2.3577398     -151988.47     -150749.14    
    398600   525.15314      49209.104      6724.9433      48.731617      2.3577398     -152026.86     -150783.95    
    398700   493.65484      19798.913      6724.9433      48.731617      2.3577398     -152004.72     -150836.36    
    398800   472.13541     -22370.386      6724.9433      48.731617      2.3577398     -152001.17     -150883.74    
    398900   476.68107      14259.306      6724.9433      48.731617      2.3577398     -152019.2      -150891.01    
    399000   498.4039       999.875        6724.9433      48.731617      2.3577398     -152006.66     -150827.05    
    399100   496.10139     -10088.509      6724.9433      48.731617      2.3577398     -151945.21     -150771.05    
    399200   497.34145      44878.053      6724.9433      48.731617      2.3577398     -151949.66     -150772.57    
    399300   487.86199      14973.669      6724.9433      48.731617      2.3577398     -151941.99     -150787.33    
    399400   511.94401      21774.349      6724.9433      48.731617      2.3577398     -152035.16     -150823.51    
    399500   496.46596      43557.383      6724.9433      48.731617      2.3577398     -152042.35     -150867.34    
    399600   494.68732      22235.807      6724.9433      48.731617      2.3577398     -151998.62     -150827.81    
    399700   512.21987      8656.3076      6724.9433      48.731617      2.3577398     -151975.39     -150763.09    
    399800   492.16792      18893.473      6724.9433      48.731617      2.3577398     -151930.94     -150766.1     
    399900   499.70669     -1504.7895      6724.9433      48.731617      2.3577398     -151967.23     -150784.54    
    400000   505.35246     -7375.7072      6724.9433      48.731617      2.3577398     -151990.51     -150794.46    
    400011   501.44399     -10122.821      6724.9433      48.731617      2.3577398     -151982.79     -150796       
Loop time of 15004 on 64 procs for 400000 steps with 795 atoms

Performance: 0.576 ns/day, 41.678 hours/ns, 26.660 timesteps/s
99.7% CPU use with 64 MPI tasks x 1 OpenMP threads

MPI task timing breakdown:
Section |  min time  |  avg time  |  max time  |%varavg| %total
---------------------------------------------------------------
Pair    | 7840.9     | 10845      | 13546      |1534.5 | 72.28
Neigh   | 66.272     | 92.413     | 112.13     | 138.6 |  0.62
Comm    | 186.42     | 2669.9     | 5408.9     |2793.7 | 17.79
Output  | 0.5031     | 0.62944    | 0.87234    |   9.5 |  0.00
Modify  | 1152       | 1393.4     | 2334.6     | 745.9 |  9.29
Other   |            | 2.865      |            |       |  0.02

Nlocal:        12.4219 ave          15 max           5 min
Histogram: 3 1 0 2 2 4 4 4 17 27
Nghost:        2109.55 ave        2405 max        1797 min
Histogram: 9 7 0 5 6 8 13 2 4 10
Neighs:        6911.69 ave        8991 max        2036 min
Histogram: 4 0 1 3 6 3 4 10 21 12

Total # of neighbors = 442348
Ave neighs/atom = 556.41258
Neighbor list builds = 8736
Dangerous builds = 0

write_data graphene_single_layer_ReaxFF_750_C_temp_500K.data ### MODIFY FILE NAME ###
System init for write_data ...
Total wall time: 4:10:06
