LAMMPS data file via write_data, version 14 Dec 2021, timestep = 50096

40 atoms
1 atom types

-2 11 xlo xhi
-2 11 ylo yhi
-2 2 zlo zhi

Masses

1 12.0107

Pair Coeffs # lj/cut

1 0.066047 3.4

Atoms # charge

1 1 0 -0.2921262014211249 -0.593172983809187 0.988376662049392 0 0 0
3 1 0 2.3424815342007235 0.7330474364621918 0.9673990622270842 0 0 0
4 1 0 1.6581943155688559 -1.1940063733491137 -0.9989166047537034 0 0 0
5 1 0 3.606676479635927 -1.8162655219917492 0.9863282330667236 0 0 0
6 1 0 4.2617080975739885 0.07358013971052427 -0.9995621087433616 0 0 0
19 1 0 6.201527507195772 -0.5952910767576158 0.9759585178365983 0 0 0
20 1 0 8.152920071270016 -1.2427279328693737 -1.0181261277780238 0 0 0
21 1 0 10.14328265144835 -1.8289795936602948 0.9863079680258104 0 0 0
22 1 0 10.787155046814306 0.09679968831592643 -1.0350689903518477 0 0 0
25 1 0 8.791738128331684 0.7310361404927024 1.0721817411235153 0 0 0
7 1 0 0.3632479800376325 1.3340160410173503 -1.0264810720516544 0 0 0
2 1 0 -0.8958731822988505 3.9644126433908413 -1.0774624959862047 0 0 0
9 1 0 0.9895981088261131 3.3228790479741668 0.961330998555249 0 0 0
26 1 0 -1.519051374477777 1.996266523513252 0.9392538656338364 1 0 0
10 1 0 2.936235312557018 2.6286489687358374 -0.9719045213529212 0 0 0
24 1 0 6.854546113472355 1.3977518080390274 -1.0333870892117565 0 0 0
17 1 0 5.645087981246686 3.973806450988982 -0.988407945724566 0 0 0
11 1 0 4.963243353107286 2.0017766595674877 0.9859289044097043 0 0 0
23 1 0 7.558954340025266 3.314702662285655 0.9899701090320936 0 0 0
29 1 0 9.545927457166226 2.6914789498697864 -1.0008829153202932 0 0 0
14 1 0 -0.27673882884469697 6.002602833214258 1.0209354512805318 0 0 0
15 1 0 2.304723180380818 7.18906147856505 1.0754519224400325 0 0 0
16 1 0 1.7284242620905959 5.254536708681727 -0.9413206697338932 0 0 0
18 1 0 4.271345949820683 6.585591811933627 -0.9297173080051272 0 0 0
12 1 0 3.683194400665093 4.532686991319328 1.011845731399869 0 0 0
27 1 0 6.256732375527383 5.870308501188774 0.986622674043058 0 0 0
8 1 0 10.167969547820128 4.667699115762296 0.9380456135074516 -1 0 0
13 1 0 10.805350442089297 6.603155770972508 -1.0053656625901797 -1 0 0
28 1 0 8.20392136837657 5.2550425101977005 -1.0232872211839095 0 0 0
39 1 0 8.885503654235928 7.24294964650226 0.9933980106489525 0 0 0
31 1 0 0.3958741523610557 7.962378862270119 -0.9716153860889981 0 0 0
32 1 0 -0.9427779485928025 10.522613592409758 -0.9671081675333457 0 0 0
33 1 0 1.0496076663891352 9.837879239632509 1.04139767953016 0 0 0
30 1 0 -1.5511860503355523 8.564394265324752 0.9629925739734667 1 0 0
34 1 0 3.0115453709458495 9.177216205406197 -0.941047587016338 0 0 0
35 1 0 4.957498084895979 8.487881290014661 1.0388277469347127 0 0 0
36 1 0 5.575194567619283 10.491555004426004 -0.9985365054772518 0 0 0
37 1 0 7.5344568113253505 9.807908374033737 1.0299868080701486 0 0 0
38 1 0 6.9337230543941395 7.895764540333477 -1.0385317974056911 0 0 0
40 1 0 9.510164218555152 9.22486357988491 -0.9858100986871395 0 0 0

Velocities

1 0.0010653726337503699 -0.003370834600913666 -0.001660904952303371
3 -0.0002875865314258618 -0.003841993400099595 0.0010006848339963058
4 0.0012602653725711462 0.00015323760443290346 -0.0035742790004286815
5 0.00044607111314583063 0.0017094414796079858 -0.0029867785035444325
6 -0.0005937438585435833 0.0011225595898982604 -0.0016218145267285903
19 -2.1476995511369114e-06 0.0011780236488196812 0.0004950669414828772
20 0.003433448098279954 0.0003148574806781431 -0.0004439601631578231
21 -0.00029431382202703985 0.0035010206849679067 0.0005420273563282664
22 -0.0026195776123954188 0.0019900070764266933 0.0002368982192183743
25 -3.990214783602476e-05 0.0006735650658480058 0.0004938218546891909
7 8.414491760610216e-05 -0.0007648821209286964 0.0013992890897039773
2 0.0008010275674279469 -0.0003423913291594317 0.0011852169641723002
9 -0.0014338016659187999 -3.3726715941771218e-06 -0.00238780069927812
26 0.004168040432594415 -0.002930337836313119 0.0004214196632993848
10 -0.002250659653185893 -0.00011888136041617469 -0.00013613749776679327
24 -0.0016607181103984858 0.0012018783971628022 0.002497707598073955
17 -0.0003361808120447462 0.002603237982664897 0.00013984979488408121
11 0.0017623202857032388 -0.0007695246226995506 0.0025359137823361007
23 -0.0028458553788183747 -0.0009716218191604567 -0.0029757231550803873
29 -0.00013676266482498417 -0.0011643463394831628 0.0028585511131946377
14 -0.0009978623723433078 -0.0006645594740628604 0.0018009541184229956
15 -0.0002377355980561317 -0.002647218203143755 -0.0007792276676455872
16 -0.0014968045076722532 -0.002690327014791417 -0.0028412149870928895
18 0.005766252364322524 -0.0008876052198519489 0.0004765622317193373
12 -0.0021120319027149535 0.0008874020625990107 -0.0007070390902883997
27 -0.0010050896810567802 0.0012437941725659402 -0.0020234722014718827
8 -0.002463483266405983 0.0023274761944798803 0.001060607890087402
13 0.0008625639164898052 -0.00015654147416427065 0.0024631167972918606
28 0.0011380552626798896 0.0006812329126775804 0.0018085186363132099
39 0.0005408898001083884 -0.000904055319296732 -0.0014842848674705288
31 -0.0030438902214257615 -0.000232297642687583 0.002436184837478282
32 0.000833228111977546 -0.00020736303070605338 0.0006726941152261908
33 0.0009299085139618435 -0.0018034194319745463 0.00014610180833560317
30 -0.0016032431205340331 0.0007281189574255536 0.00017719165555511593
34 -0.0010160522190754207 0.0026202971382643186 -0.000563363305593698
35 0.0017971013434198598 0.0014559242504361709 -0.0018336930007131656
36 -0.00023848815600707024 0.0028584149754432046 0.0017248615326723705
37 -0.00010407358649345873 -0.00300181944115659 -0.0011454036334593942
38 8.742171632204483e-06 0.0002808073383072815 0.0016643002333204878
40 0.001922572683084367 -5.790466010218126e-05 -0.0010724438158229285
