LAMMPS data file via write_data, version 14 Dec 2021, timestep = 50099

40 atoms
1 atom types

-2 11 xlo xhi
-2 11 ylo yhi
-2 2 zlo zhi

Masses

1 12.0107

Atoms # charge

1 1 -2.6083671830767763e-07 -1.0606706863509257 1.165664679966152 -1.7341702894418583e-17 0 0 0
2 1 -3.0633840433797604e-06 -0.09939758990058647 2.137266626083985 -1.882273605962872e-17 0 0 0
3 1 6.224738698795695e-08 1.432325036694175 1.854839067403638 -1.8607576833372858e-17 0 0 0
4 1 -3.193266036531639e-06 1.9368578256891633 0.5440458704306207 -1.8954822394982525e-17 0 0 0
5 1 4.056955880370194e-06 3.097900934583147 0.2027439685482601 -1.8910006627195913e-17 0 0 0
7 1 2.4471823791560876e-06 -0.4263698306182176 3.660353245560127 -1.962750788858978e-17 0 0 0
9 1 1.2374809670798181e-06 1.9938312471759814 4.290192723874618 -1.8009551417125267e-17 0 0 0
10 1 -2.2857832580394644e-06 2.3878002109390626 2.921944681225232 -1.7831409872612735e-17 0 0 0
11 1 5.235973865695687e-06 3.7919398689584094 2.548514278658835 -1.788412897779206e-17 0 0 0
6 1 -8.968713074812562e-06 4.199765005349873 1.1563927443141901 -1.8088176921664975e-17 0 0 0
12 1 -1.3761978256941754e-06 4.788456433633573 3.588154004787516 -1.6979632912761665e-17 0 0 0
19 1 1.9657393921415633e-05 5.6199571140376365 0.7972769687969993 -1.8240786439621665e-17 0 0 0
20 1 -7.97337801852413e-06 6.250868850167449 -0.40171296665242046 -1.8816255920590008e-17 0 0 0
21 1 3.112796992166267e-06 7.352198146945778 -1.1438283730650696 -1.975485236148164e-17 0 0 0
22 1 -2.620130069380666e-06 7.983748509734455 -0.11520088680235313 -1.8878657758801024e-17 0 0 0
23 1 1.2778322943426956e-05 6.20764064158496 3.283380855705852 -1.7343016579116465e-17 0 0 0
24 1 -1.765519763425802e-05 6.541402656828926 1.8620905707128035 -1.7911374718983932e-17 0 0 0
25 1 3.3002555827055247e-06 7.967004955577821 1.4160782365390452 -1.8936393483654364e-17 0 0 0
26 1 -2.5664537672692722e-06 9.003385328905349 2.395884142395064 -1.8604138324616834e-17 0 0 0
29 1 7.913148105094178e-06 8.66405089796309 3.9198121557771017 -1.7603266163594745e-17 0 0 0
28 1 -5.815359372163265e-06 7.235619859566322 4.298888891251383 -1.7118247724118495e-17 0 0 0
8 1 3.994581677498055e-06 0.5556128930481825 4.707561823125654 -1.8214948010993783e-17 0 0 0
13 1 -5.054387224520673e-07 0.2187147152531309 6.212285992251335 -1.8796488205994986e-17 0 0 0
14 1 5.448728538012815e-07 1.284523382758009 7.197802481919278 -1.8706126672432862e-17 0 0 0
15 1 -2.4268682431577426e-06 2.6619025139879335 6.719122478078423 -1.830229892371942e-17 0 0 0
16 1 1.422271412934717e-07 3.0050751289783393 5.323127408165755 -1.787920656173063e-17 0 0 0
17 1 -4.619724838807876e-06 4.424747744135748 4.984945342361321 -1.648908834599925e-17 0 0 0
31 1 -4.479872091324444e-06 1.29006224595346 8.757790379972949 -1.829431479240507e-17 0 0 0
32 1 -6.197951243902544e-07 1.9328334369312234 9.789733778596236 -1.7604806959670662e-17 0 0 0
33 1 4.732153641079373e-06 2.982693231579918 9.040237200399858 -1.690345349327486e-17 0 0 0
34 1 1.3391941131590812e-06 3.6277320989950366 7.819491095078162 -1.7015894313082942e-17 0 0 0
35 1 -9.795155575080539e-07 5.044955383509075 7.42339019345935 -1.6586080234319242e-17 0 0 0
18 1 1.4810598884043569e-06 5.412746809129114 6.031763033546666 -1.6755035240727808e-17 0 0 0
27 1 -4.0886648847715534e-06 6.82117033274129 5.689028234769035 -1.6939038209014135e-17 0 0 0
30 1 -1.6712364389118162e-06 9.66232139966494 4.971594007754776 -1.7084696529837615e-17 0 0 0
36 1 2.7125998748531166e-06 6.13944121071529 8.359634158306243 -1.6420123320408584e-17 0 0 0
37 1 3.6231254218338504e-07 7.294203327942906 8.071351299184622 -1.6210049975344e-17 0 0 0
38 1 3.324570227100643e-08 7.792514759137938 6.762823610022162 -1.6510627700725072e-17 0 0 0
39 1 9.288793777380289e-07 9.299658970745298 6.489002486913054 -1.6669572456816603e-17 0 0 0
40 1 -9.030691166533877e-07 10.280774997326747 7.432383510583973 -1.7483319443952806e-17 0 0 0

Velocities

1 0.0011665213778647553 0.0007164687432405565 -1.0804299660170344e-20
2 -0.0017129528719169599 0.0027101623979549874 1.8321317176246553e-20
3 -0.004969432924576505 0.001683142030589818 -2.301404864528703e-21
4 0.0015141305644351415 -0.0018926806196175316 6.446309923652596e-20
5 0.008543390847621238 0.007013457836110394 -2.660092053600861e-21
7 0.0006593283758659138 -0.002593594639188369 1.6240333478567781e-21
9 0.002148247634561989 0.004436967667216004 2.3110013803225512e-20
10 0.0013444210449818708 -0.0015071040097289954 -1.8984404620428536e-21
11 0.006881047071029424 -0.00753465353634402 3.1861000651703217e-21
6 0.004555523892589117 -0.00796089229222144 5.199926259879886e-20
12 -0.002259611636819938 -0.002847772350050449 6.633437276110334e-20
19 -0.007384908849945813 0.01876260580049605 -1.2187257349651114e-20
20 -0.00031712316028951435 -0.0009163796360785043 -3.2988362340470944e-21
21 0.009503295147310721 -0.004015242485141381 -1.7229957786074465e-20
22 -0.009524493553095049 0.007663483163074834 -5.2969738614173396e-21
23 0.0038546525431431312 0.0002254280510660395 -2.6029326006417345e-20
24 -0.002112056785074671 0.004181498592280181 1.744882117027977e-20
25 0.002993772259628652 -0.00949675509386305 1.74408474368748e-20
26 -0.00880995083777835 -0.004426707406873357 1.5618405302958616e-21
29 -0.003757148532921411 -0.0017123577467840253 1.0589637174343161e-20
28 -0.0015043779035772145 -0.002797005798618317 2.6054940268864476e-20
8 -0.0027103675922422426 0.0017578943999283284 6.876885276565671e-21
13 0.0007029448851805858 -0.0005097764081880801 -3.486419923617103e-21
14 -0.002112320089420954 -0.001737326171595749 4.9593599341949656e-20
15 0.005422930989827231 0.004709841438328061 1.2304456081646983e-20
16 0.00011077141991526841 -0.0018677943036158392 2.779491574263496e-20
17 0.003520866088208133 0.0017176543025662512 1.4974721767319942e-20
31 -0.0015967872754621725 0.0018656904226314877 -6.867180551749895e-21
32 -0.0011101183586926782 0.00019916162640055661 1.718168790679822e-20
33 0.003154306837128194 -0.000959310167163849 -9.722884109725898e-21
34 -0.0038057324001853055 -0.0035385004542674778 -4.716215496288047e-21
35 0.0025636041137372893 -0.0007399689797930124 -9.004900779483831e-21
18 -0.002216030941360929 -0.0032051919334956406 -1.990053838964563e-20
27 -0.0013740747355266778 0.0014190314238466133 -2.1769281213994773e-20
30 0.0015200379845262777 -0.001189542557463714 -3.5968283277211906e-20
36 -0.002356751182454113 -0.0006812511141927436 2.072733669329898e-20
37 0.00013012243956682414 -0.0015014843693479554 1.8356959581524103e-20
38 -0.0006314356988395075 0.001593226846785716 2.9626945511308085e-21
39 -0.0012040855368555107 -0.00041583906257626116 9.799753749158026e-21
40 0.0011798453499136643 0.003391416393693898 1.107719175340392e-20
