LAMMPS data file via write_data, version 14 Dec 2021, timestep = 400100

795 atoms
1 atom types

-51 96 xlo xhi
-51 96 ylo yhi
-51 51 zlo zhi

Masses

1 12.0107

Pair Coeffs # lj/cut

1 0.066047 3.4

Atoms # charge

79 1 0 -40.77424946574009 -50.29042559618357 0 0 0 0
651 1 0 -36.71626289799166 -50.109844584371125 0 1 1 0
188 1 0 -33.46359312554074 -49.14502445874481 0 0 0 0
234 1 0 -17.661331493522727 -48.65698403046037 0 1 1 0
765 1 0 3.5601174190756875 -48.57164412635774 0 0 1 0
484 1 0 9.692976144005309 -50.71210496047271 0 0 0 0
661 1 0 15.620450305383317 -48.462398640430564 0 0 1 0
639 1 0 18.054075347639767 -50.485193285948796 0 0 0 0
723 1 0 21.180446610234572 -49.87236895770367 0 0 1 0
758 1 0 26.689550166675655 -48.08567453767952 0 0 1 0
364 1 0 36.14593714839609 -48.763059402679886 0 0 1 0
498 1 0 50.29991432377393 -49.70340065063459 0 -1 1 0
348 1 0 59.97288514525573 -48.47857123611481 0 -1 0 0
576 1 0 69.6981246061424 -50.434165727632674 0 0 1 0
698 1 0 85.79655005458707 -49.03356937653757 0 0 1 0
659 1 0 -50.73293950259547 -46.4575871766618 0 0 1 0
624 1 0 -40.71586972418269 -45.64011107614364 0 1 1 0
573 1 0 -35.96155596904905 -45.81976205270084 0 0 1 0
265 1 0 -26.7818799819315 -45.03310366438414 0 0 0 0
259 1 0 -20.34054077619231 -45.89151697957464 0 0 0 0
628 1 0 -17.833416630886934 -44.56422649832977 0 1 1 0
122 1 0 -15.055462833479064 -45.59013621850807 0 1 0 0
323 1 0 -8.331012045690487 -47.575309004525714 0 0 0 0
643 1 0 1.2371402169566639 -45.82750003114483 0 1 0 0
603 1 0 4.083263581457913 -44.70042322048236 0 0 1 0
169 1 0 13.82768174424225 -45.24714026088875 0 0 0 0
768 1 0 19.218244154035077 -45.67285643128421 0 0 1 0
371 1 0 23.07210563418036 -46.059433445297884 0 -1 1 0
514 1 0 33.300178743499444 -45.17394239522798 0 0 0 0
695 1 0 45.48140032629979 -46.64690224260508 0 -1 2 0
213 1 0 54.39552903390313 -45.51253709412922 0 0 0 0
236 1 0 60.36001791157693 -45.245748070683426 0 0 1 0
41 1 0 63.884229716477044 -45.703183552045054 0 -1 0 0
415 1 0 70.70426235900422 -46.26633728257116 0 0 0 0
40 1 0 85.08863512704666 -45.47015091733805 0 0 -1 0
600 1 0 -47.628849573343636 -42.207242718732665 0 0 1 0
629 1 0 -38.77552814522731 -43.692718285308096 0 0 0 0
357 1 0 -32.36856374631524 -44.112727631645846 0 0 1 0
621 1 0 -31.530246008125832 -40.99408655403361 0 0 1 0
762 1 0 -29.375792132400353 -43.56312423454092 0 1 1 0
115 1 0 -23.847402033188914 -42.4831433423181 0 1 0 0
173 1 0 -14.451852509565908 -41.92788480008115 0 0 0 0
535 1 0 -11.219533323606528 -44.102934834716706 0 1 1 0
16 1 0 -1.3810503308299686 -43.7483415541843 0 -1 0 0
631 1 0 4.604416910060174 -41.25920511904535 0 0 1 0
542 1 0 30.143318282746865 -42.94111502009281 0 0 1 0
34 1 0 38.48734242286736 -41.80681316759655 0 -1 0 0
730 1 0 43.552673281311435 -41.88803722025336 0 0 1 0
95 1 0 50.66925241024136 -42.3503331894754 0 0 0 0
612 1 0 66.80168436129159 -44.11322328300466 0 0 1 0
581 1 0 77.4819719101545 -42.574329399598504 0 0 1 0
749 1 0 83.12395628729541 -41.88221532117861 0 -1 0 0
315 1 0 90.66924623765553 -43.6981976828734 0 -1 0 0
521 1 0 -44.49907714048671 -40.14830499681964 0 1 1 0
191 1 0 -40.583782550362315 -40.312130766281385 0 0 0 0
636 1 0 -27.279775109662456 -39.125610187333656 0 0 1 0
307 1 0 -19.912804867955145 -40.1430354039305 0 1 0 0
692 1 0 -9.692198232133544 -39.358116367551055 0 0 1 0
435 1 0 -1.6863343598160194 -40.46481086972309 0 1 0 0
378 1 0 0.7639748750872891 -38.482769775629244 0 0 1 0
325 1 0 7.069738186576038 -38.75714001584307 0 0 0 0
413 1 0 14.240672074498839 -39.20412425853966 0 0 0 0
214 1 0 27.79758379237099 -41.2425384199641 0 0 0 0
432 1 0 29.326323664832543 -38.15359906067452 0 0 0 0
458 1 0 33.12049099437492 -38.86344764384231 0 -1 1 0
23 1 0 42.57705983587758 -37.971889652785784 0 -1 0 0
545 1 0 46.44334547922794 -39.76857431303505 0 0 1 0
289 1 0 49.39708175087241 -38.067157586502425 0 -1 0 0
396 1 0 54.47848663424963 -40.572256254212654 0 0 0 0
50 1 0 66.64142954005726 -39.81004301193089 0 0 0 0
626 1 0 72.87345219775294 -38.241293446923194 0 -1 1 0
138 1 0 77.17094606248797 -38.77731054645212 0 -2 1 0
44 1 0 81.12023997502635 -38.301490074855046 0 -1 0 0
501 1 0 88.62885850783796 -40.81019601169133 0 0 1 0
677 1 0 -43.81109337586909 -37.04985279247645 0 1 1 0
215 1 0 -38.45914354419476 -37.51566070393511 0 1 0 0
176 1 0 -34.61017067219023 -36.61199024105417 0 0 0 0
753 1 0 -28.536816639023808 -36.006367371616115 0 1 2 0
350 1 0 -23.805081019478344 -34.90722128417287 0 0 1 0
564 1 0 -13.628116441049986 -35.719395770386726 0 0 1 0
575 1 0 -4.080733322664736 -35.83799509020529 0 0 1 0
185 1 0 8.345069745755497 -35.81829961676607 0 0 0 0
19 1 0 25.445750456714403 -38.26955342196862 0 0 0 0
602 1 0 38.15784960870005 -35.38401431956395 0 1 1 0
642 1 0 46.549752633506586 -35.65225206710942 0 0 0 0
210 1 0 52.42450567214941 -37.272115855682046 0 0 1 0
620 1 0 59.13537036943002 -36.930162789640825 0 -1 1 0
494 1 0 71.50754977961893 -35.23206432207008 0 0 0 0
450 1 0 84.40204617802797 -36.621138690011065 0 0 0 0
685 1 0 -47.881153328508695 -34.00728385875301 0 1 1 0
229 1 0 -43.73567118341804 -32.33712806122589 0 1 1 0
340 1 0 -40.366552648710254 -32.88243982240087 0 1 0 0
422 1 0 -36.038957509521964 -32.71491487159171 0 0 0 0
563 1 0 -30.479551589415838 -33.878832748493245 0 0 1 0
786 1 0 -22.54746940214833 -32.34102372709353 0 1 1 0
104 1 0 -19.36761190436486 -34.40351112275751 0 1 0 0
486 1 0 -7.829695918009838 -34.08678860683295 0 1 0 0
456 1 0 -0.3050524435603111 -34.14056054268882 0 0 1 0
1 1 0 10.64999446171185 -34.04477956066254 0 0 0 0
230 1 0 14.10165541736705 -32.01524118935479 0 0 -1 0
379 1 0 15.789357319767422 -34.68563798120498 0 0 1 0
274 1 0 24.189009736477807 -32.69067730108598 0 0 0 0
719 1 0 30.13382292483456 -33.132944281251184 0 0 1 0
310 1 0 34.6926227850649 -34.153775639195295 0 0 0 0
734 1 0 52.34249114696363 -34.02367911672043 0 0 1 0
167 1 0 60.014782334695624 -33.302778210475786 0 -1 0 0
464 1 0 71.26328748673619 -32.40264258079347 0 -1 1 0
61 1 0 75.27743224173669 -34.51477564811384 0 0 0 0
355 1 0 84.11210356596233 -32.38079769618393 0 -1 0 0
745 1 0 93.92999458716896 -33.62316928224184 0 0 1 0
546 1 0 -46.88079828819034 -31.235306205230568 0 1 1 0
429 1 0 -42.16519688759886 -29.492699983120577 0 1 0 0
132 1 0 -32.221339186648564 -28.87322777246487 0 0 0 0
455 1 0 -6.231124973330412 -28.763181834452784 0 0 0 0
343 1 0 3.1138280331115182 -30.62493774103782 0 1 -1 0
313 1 0 7.904775579642002 -28.048269558772603 0 0 0 0
92 1 0 10.459661846494365 -30.193229513782132 0 0 0 0
444 1 0 20.00647998609618 -28.564022473179236 0 1 1 0
5 1 0 36.361309750589854 -28.842266251884165 0 -1 0 0
112 1 0 38.9635087089814 -30.511969970639022 0 1 -1 0
397 1 0 48.51117048345242 -31.003592745761335 0 0 0 0
459 1 0 52.57891056669313 -30.183547717072486 0 0 0 0
374 1 0 56.8040329040043 -29.994638748961982 0 -1 0 0
256 1 0 75.99597780871859 -28.88531667905833 0 -1 0 0
146 1 0 79.60078635248698 -31.56979830955368 0 -1 0 0
496 1 0 87.79647767708566 -31.39593158515283 0 -1 1 0
223 1 0 -47.97685161231484 -26.50166181785225 0 1 0 0
622 1 0 -37.497806320070964 -28.360674044348073 0 0 1 0
550 1 0 -25.785553353862785 -27.921239412352215 0 1 1 0
625 1 0 -19.3434254584908 -27.83059410445988 0 1 1 0
417 1 0 -11.431864303023824 -25.123265125727368 0 1 0 0
618 1 0 -3.427789322338721 -25.705760235346442 0 0 1 0
616 1 0 5.017053713372469 -26.425356339647518 0 0 1 0
56 1 0 11.544648487065672 -27.27577164272842 0 0 -1 0
381 1 0 17.61654577781501 -25.99187628373706 0 0 1 0
302 1 0 23.28826850400043 -27.84821615892911 0 0 0 0
99 1 0 28.87366013432913 -27.531915263090106 0 0 0 0
55 1 0 31.942984260778427 -25.292176995160986 0 0 0 0
604 1 0 47.50738700975347 -26.751629280391217 0 0 0 0
389 1 0 55.48267871967565 -27.36906937850587 0 0 1 0
98 1 0 61.80688629117687 -27.35145683289056 0 0 0 0
640 1 0 74.3680871400304 -25.453297768006397 0 0 0 0
182 1 0 83.86457287395034 -26.635085542297436 0 0 0 0
203 1 0 89.30188554803519 -27.778327567539353 0 -1 0 0
166 1 0 -42.08250141492722 -24.453091098432267 0 0 0 0
387 1 0 -38.238957309939984 -22.529991019478363 0 0 0 0
96 1 0 -35.467072175716666 -21.98531831898956 0 1 0 0
670 1 0 -30.362051054533964 -22.95474975249721 0 1 0 0
280 1 0 -21.830953494732 -24.066207553166798 0 0 0 0
65 1 0 -17.02139414908427 -24.594525715991608 0 0 0 0
394 1 0 -14.057612031847617 -22.904022123212474 0 0 0 0
127 1 0 -11.30102526475107 -22.09918612608996 0 1 0 0
488 1 0 6.13210531036217 -23.8118070014433 0 0 1 0
774 1 0 13.751625835671286 -21.7237061953858 0 1 1 0
17 1 0 22.426196055781258 -22.935862099776 0 -1 0 0
133 1 0 25.458172870668605 -23.738129089789407 0 -1 1 0
272 1 0 39.69830133919444 -24.137792767663147 0 0 0 0
62 1 0 44.29430401521802 -22.901675935148877 0 0 0 0
180 1 0 56.81547197366786 -23.724531239279052 0 0 0 0
267 1 0 60.31091089474828 -23.016539027751953 0 0 -1 0
119 1 0 67.38546689389231 -24.219032019251994 0 0 0 0
242 1 0 70.3319503407316 -24.821240613062745 0 0 0 0
83 1 0 76.99367964714543 -24.04274691594574 0 0 -1 0
140 1 0 89.53918604866301 -21.50251767139306 0 -2 0 0
59 1 0 92.80298094694244 -24.737189546207087 0 -1 0 0
320 1 0 -49.7654548736167 -20.583800621746178 0 1 0 0
184 1 0 -43.80670422749543 -20.391065637150067 0 1 0 0
373 1 0 -39.77517981293593 -19.87042834245231 0 1 0 0
13 1 0 -32.8848063926328 -19.80488536616308 0 0 0 0
311 1 0 -27.211152484688732 -21.09031434126181 0 1 0 0
489 1 0 -21.55560742067654 -18.776990917256718 0 0 0 0
149 1 0 -18.246715127848624 -19.695951117819078 0 0 0 0
351 1 0 -15.120510171400026 -19.85179283813297 0 -1 0 0
743 1 0 -0.7285155264634798 -20.139965885546527 0 0 1 0
240 1 0 14.81522203183946 -18.9067144870535 0 -1 0 0
437 1 0 21.726997551691834 -18.585927898754942 0 1 1 0
247 1 0 39.06202795044861 -21.29972256593686 0 0 1 0
558 1 0 51.41476940054629 -20.70035307074737 0 1 1 0
263 1 0 68.72108562414923 -20.90413542641345 0 -1 0 0
341 1 0 81.28834165591404 -21.335328149616323 0 0 0 0
174 1 0 -42.33350305543644 -15.921405192000956 0 0 0 0
30 1 0 -29.250403949596567 -17.6218242772429 0 0 0 0
2 1 0 -12.63849705594376 -17.00660137035214 0 0 1 0
773 1 0 -8.099602791766248 -15.090714189030452 0 0 1 0
143 1 0 -4.554294263246544 -16.822726685504833 0 0 1 0
26 1 0 1.6208969372670232 -16.174071163470593 0 0 0 0
497 1 0 9.53711094763449 -17.96287513889911 0 0 0 0
58 1 0 12.314953999332122 -17.15011647414144 0 0 0 0
485 1 0 32.70441772674557 -17.79208411774223 0 0 0 0
332 1 0 44.69243587171128 -16.710861518058856 0 0 0 0
226 1 0 59.05741390183101 -16.613677258838322 0 0 0 0
204 1 0 62.144986207387845 -18.259301073472084 0 0 0 0
202 1 0 66.81718685597976 -17.317185866972096 0 0 -1 0
268 1 0 85.14537883768162 -15.436031482007417 0 -1 0 0
540 1 0 88.11118423719971 -16.734435607853168 0 0 0 0
728 1 0 94.90523464576574 -17.262150719080537 0 -1 1 0
333 1 0 -41.67719093843953 -12.282883303517583 0 1 0 0
57 1 0 -38.13805542153855 -14.298063424842276 0 0 0 0
506 1 0 -35.40282506896207 -13.702697809760442 0 1 0 0
124 1 0 -17.84145541868662 -14.301647763411456 0 1 0 0
277 1 0 -12.067332359867297 -12.029488075158579 0 0 0 0
693 1 0 -2.781058564669738 -13.202300338711861 0 0 1 0
632 1 0 3.147011275077097 -13.366211423769323 0 0 0 0
654 1 0 8.868879711261126 -12.188875375605479 0 0 0 0
270 1 0 16.67684039639004 -12.97659651370683 0 0 0 0
687 1 0 21.049816329178054 -14.861748260098947 0 1 1 0
724 1 0 25.487028678974312 -14.234945262140242 0 0 0 0
614 1 0 49.10464718828778 -13.234286709081548 0 0 0 0
339 1 0 53.66201690099852 -14.966640616816232 0 0 0 0
136 1 0 57.43514569135571 -13.769303302656052 0 0 0 0
584 1 0 64.793458400433 -12.44475157310821 0 0 1 0
135 1 0 69.26948926663036 -12.932431188210783 0 -1 0 0
474 1 0 77.36373710581553 -12.985907357028095 0 -1 0 0
716 1 0 81.66854302697612 -14.26360208519461 0 -1 2 0
462 1 0 88.38812423724168 -13.165903622618188 0 -1 1 0
787 1 0 95.40523685269314 -13.1941181050341 0 0 1 0
409 1 0 -44.03261501618147 -9.67398363738794 0 1 0 0
566 1 0 -39.978774900830715 -10.07049039951269 0 0 0 0
11 1 0 -36.77762912743465 -9.512189449810696 0 0 0 0
36 1 0 -28.919359680338307 -8.48690038126573 0 0 0 0
269 1 0 -24.628001905539154 -11.791008794546197 0 0 0 0
595 1 0 -14.904698301061853 -10.78601488270635 0 1 0 0
561 1 0 -7.410746341198774 -8.630778963671645 0 -1 1 0
35 1 0 0.16132459811920152 -10.506776945063205 0 0 0 0
252 1 0 5.311943087041476 -10.529342536433829 0 0 0 0
475 1 0 17.225800534845128 -9.827667228013196 0 0 1 0
390 1 0 23.462381835177407 -11.120319532231635 0 0 1 0
493 1 0 29.407015621932867 -10.655338798578397 0 0 0 0
794 1 0 42.61529265213659 -10.969777195351051 0 1 0 0
253 1 0 51.09244801746792 -10.671492456511208 0 0 1 0
469 1 0 62.220681849930706 -10.301023004654423 0 -1 0 0
192 1 0 73.89738634556747 -11.06059189443733 0 0 0 0
162 1 0 85.31514805127912 -11.602830439221844 0 0 0 0
598 1 0 -47.671150261051004 -6.3742248310136755 0 0 1 0
555 1 0 -43.01685974645305 -5.963697983008224 0 0 0 0
141 1 0 -24.54044751576618 -6.367252374072094 0 0 0 0
638 1 0 -14.926468890750522 -7.471029479439472 0 1 1 0
655 1 0 -12.263550133518672 -6.481705506920957 0 1 0 0
439 1 0 5.2873652389108745 -6.051746212866308 0 0 0 0
9 1 0 14.240012930720816 -6.7525567293010464 0 0 0 0
303 1 0 17.43021883198105 -6.76818568302192 0 0 1 0
157 1 0 30.88594122748794 -8.321796429436256 0 0 0 0
738 1 0 46.52607311298725 -8.544286773241689 0 0 1 0
344 1 0 53.02614024757726 -6.317318870373621 0 0 0 0
630 1 0 64.05181891517282 -6.672591990070574 0 0 0 0
106 1 0 69.73498455656026 -6.315922872724783 0 0 0 0
739 1 0 75.06641909127796 -6.916718218551748 0 0 0 0
619 1 0 81.238675914018 -7.575923969031337 0 0 0 0
543 1 0 85.92669493979972 -7.922174192355547 0 0 0 0
436 1 0 -29.239767945792963 -5.2308451437097485 0 1 0 0
644 1 0 -27.612475444790952 -2.7998208278878054 0 1 0 0
556 1 0 -18.706588617503055 -2.699243561566566 0 1 0 0
617 1 0 -14.36451676508576 -3.5274370220890026 0 1 0 0
721 1 0 -11.593595477504387 -2.14117981374286 0 0 0 0
736 1 0 -4.93982232212076 -4.487949860337325 0 0 1 0
522 1 0 -1.1904651372223234 -3.9810059238246 0 0 0 0
8 1 0 12.359142307782896 -2.2062595700776506 0 -1 0 0
233 1 0 20.344744816421592 -4.519611174725926 0 1 0 0
694 1 0 28.926363946329417 -3.2802178068812284 0 -1 1 0
615 1 0 32.58010924733064 -4.354478931492374 0 0 0 0
196 1 0 38.524938876183846 -2.9383006215788514 0 0 0 0
784 1 0 41.63971094074679 -3.8284113165501017 0 0 0 0
113 1 0 50.29746723548447 -3.959448189188951 0 1 0 0
537 1 0 55.056114109159786 -3.109761086851865 0 0 -1 0
578 1 0 59.76456473864942 -5.399166852233093 0 0 1 0
538 1 0 71.95794304747969 -3.4066963263458936 0 0 0 0
179 1 0 85.52848336410726 -4.638080232531242 0 -1 0 0
791 1 0 -45.940913207819996 -0.7218627053406204 0 1 1 0
109 1 0 -37.78318628047607 -1.9478469264520075 0 1 0 0
405 1 0 -24.038606159751325 0.8594713158476537 0 0 0 0
579 1 0 -14.920068608928233 0.7948920481164373 0 0 0 0
129 1 0 -5.22417635899805 -0.7858999127983627 0 0 0 0
85 1 0 7.653810613858466 -0.6973560037313887 0 0 -1 0
298 1 0 4.978521011893747 0.37623466263465677 0 0 0 0
751 1 0 17.018430073894027 -0.6872248279189174 0 0 0 0
445 1 0 35.29612136995573 0.7901074459630724 0 0 0 0
572 1 0 44.750317056395644 -0.9917790688989174 0 0 1 0
665 1 0 60.00536005944071 -1.6883941501295359 0 0 0 0
205 1 0 62.70915398571021 1.2176800496722013 0 0 0 0
534 1 0 75.12759146399115 0.04142698668405567 0 0 1 0
367 1 0 85.12757828145496 -0.5695965846287874 0 -1 1 0
697 1 0 90.71037334137198 1.2257962371504478 0 -1 1 0
574 1 0 93.59520840683183 0.976138746050292 0 -1 1 0
74 1 0 -37.749815024744066 1.8981503950859562 0 1 0 0
108 1 0 -31.53325831022797 4.274235559711624 0 1 -1 0
279 1 0 -19.192612100355095 2.3331953216999914 0 0 0 0
239 1 0 -10.674433918013088 3.2171892558878206 0 0 0 0
471 1 0 18.894242670271414 3.2990525427451223 0 0 1 0
137 1 0 21.78510063687176 1.4283405220349243 0 0 0 0
258 1 0 32.22126043868021 1.813099864925678 0 0 0 0
232 1 0 40.31172739306372 1.9724225906538588 0 1 0 0
217 1 0 44.89040562010129 2.1005250295824376 0 0 0 0
400 1 0 68.287271848343 4.480370204849169 0 0 0 0
66 1 0 76.50761773436503 3.629464490698904 0 0 0 0
713 1 0 83.92559659084208 3.5967186526210497 0 -1 1 0
211 1 0 88.12519808734167 4.194783652750491 0 0 -1 0
703 1 0 94.92851729579981 3.9075672919495372 0 -1 1 0
406 1 0 -47.78764260041184 4.570871899879986 0 1 -1 0
123 1 0 -43.27722945101438 6.585878839999842 0 1 -1 0
776 1 0 -38.428626244037495 6.150575383452486 0 1 0 0
372 1 0 -35.55277847752622 4.678136763765115 0 0 0 0
78 1 0 -26.596991027667933 7.1222115087461155 0 1 -1 0
541 1 0 -18.25998015248492 5.378858290099277 0 1 0 0
648 1 0 -8.307015234787452 6.257979536405519 0 1 1 0
549 1 0 -2.1720418849966414 6.22927324721883 0 1 0 0
539 1 0 14.286801439545691 4.730762148528202 0 0 0 0
156 1 0 18.272877979337213 6.179867659678955 0 -1 0 0
126 1 0 22.457527171475668 6.3086947990072035 0 0 -1 0
513 1 0 43.39266386875965 6.327927455658227 0 0 0 0
440 1 0 47.92908407679643 4.549462889301473 0 0 -1 0
120 1 0 56.618198733246466 5.666539486757384 0 1 0 0
428 1 0 62.54434738553909 5.945487741653305 0 0 0 0
465 1 0 78.79515752307222 6.151906109497922 0 -1 1 0
46 1 0 -44.924978886902984 11.035631670576167 0 0 0 0
216 1 0 -23.086797260010414 8.244943678674437 0 1 0 0
418 1 0 -14.630104877072618 9.21390920154619 0 1 0 0
702 1 0 -10.289689767638821 9.470255369629836 0 0 1 0
206 1 0 -2.946222305070838 10.978262544872942 0 0 0 0
634 1 0 9.049574681762799 9.845533722216388 0 0 0 0
788 1 0 12.704959073307712 8.3555082452864 0 0 0 0
726 1 0 15.89885871903171 7.753575384094388 0 0 1 0
248 1 0 30.38418290113862 10.453867830914877 0 0 0 0
107 1 0 35.6418202721064 9.399897186809966 0 1 0 0
63 1 0 43.68366192194888 10.23359449121372 0 0 0 0
377 1 0 47.086766065039534 10.052703063135244 0 0 0 0
94 1 0 53.2261334773536 10.088593115265308 0 0 0 0
419 1 0 58.05521491050057 9.81241844177572 0 0 0 0
326 1 0 66.85073566097316 7.788152507872602 0 0 -1 0
290 1 0 73.27374832075232 8.958596027163596 0 0 0 0
282 1 0 76.51046650617556 8.168457977844746 0 0 0 0
609 1 0 87.26176927732703 10.222151795663123 0 -1 1 0
212 1 0 -48.388597902641976 12.227472683021489 0 1 0 0
51 1 0 -34.56539807083526 11.494273214069517 0 0 0 0
495 1 0 -27.059837273757708 11.212401876288814 0 0 0 0
700 1 0 -23.51734894735146 12.126854710958836 0 1 1 0
569 1 0 -18.411489316125117 11.774510282567851 0 0 0 0
544 1 0 -8.127828814135276 13.00327672815165 0 1 1 0
718 1 0 1.2860323783572023 12.34855455812035 0 0 0 0
275 1 0 15.040323612456351 11.182536543320433 0 0 0 0
706 1 0 24.364554801140006 11.681077534289768 0 0 1 0
266 1 0 36.871982295824694 14.017680237183672 0 0 0 0
510 1 0 49.93422928235723 12.380438354718478 0 -1 0 0
683 1 0 55.05718832676534 13.440848195325255 0 0 0 0
287 1 0 58.91084256163701 13.539588929095494 0 0 0 0
580 1 0 61.76381637999621 12.866793046187327 0 -1 1 0
170 1 0 69.61701372775607 10.977913259548753 0 0 0 0
151 1 0 78.13793462710332 13.726168895150465 0 -1 0 0
90 1 0 82.62418723827967 11.85595479724732 0 0 0 0
352 1 0 90.99177614193216 12.075327153840286 0 -1 0 0
443 1 0 -42.004664537190166 14.645628954389556 0 1 -1 0
699 1 0 -40.00272533144909 17.209760824157723 0 0 0 0
121 1 0 -37.59697602476769 14.511460744382411 0 1 0 0
671 1 0 -32.67464611937182 14.681006254840424 0 1 0 0
291 1 0 -27.87657304949803 14.912182266952172 0 0 1 0
7 1 0 -4.234250449835207 17.231156095421564 0 0 -1 0
438 1 0 4.652196289891967 14.446447209038366 0 0 -1 0
711 1 0 18.733186486956406 16.088605382808975 0 0 1 0
299 1 0 24.64072321077307 15.776790259058263 0 0 0 0
228 1 0 42.130733905708716 15.081606877007149 0 0 0 0
329 1 0 54.83187170177443 17.476865621309756 0 1 0 0
376 1 0 71.89478139906359 15.452410026132466 0 -1 0 0
442 1 0 77.94611255080501 17.51562226675429 0 0 0 0
385 1 0 85.35069071635523 13.856600569269602 0 -1 0 0
111 1 0 88.70731168993588 15.717461047941894 0 0 -1 0
327 1 0 95.97651569566068 17.29915415689434 0 0 0 0
775 1 0 -49.32121353935343 20.03859037151506 0 1 0 0
779 1 0 -34.41097621447829 20.076989307796822 0 1 1 0
231 1 0 -30.411932586871117 19.56773078841808 0 0 0 0
49 1 0 -9.18899157149749 17.556331990319954 0 0 0 0
712 1 0 -6.808132788992015 20.12969721035935 0 0 0 0
792 1 0 -3.406345063758026 19.91310184273558 0 1 0 0
388 1 0 0.7224148005601708 18.76171253747123 0 -1 0 0
292 1 0 5.870550601726602 20.488908058373443 0 0 0 0
159 1 0 15.387228293439724 20.165366916771855 0 0 0 0
672 1 0 31.60248782545299 20.157939651058854 0 1 1 0
304 1 0 36.529917992911415 17.63212321035329 0 0 0 0
613 1 0 37.87273071438448 20.650692504731328 0 0 1 0
420 1 0 51.17841232298514 18.10025714413273 0 0 -1 0
675 1 0 56.69213466987412 19.96834807063333 0 0 0 0
610 1 0 70.50819363270158 20.093899115850228 0 0 1 0
4 1 0 83.08871195730036 18.246575043462453 0 -1 -1 0
330 1 0 -47.44772656473384 22.461630416512858 0 1 0 0
447 1 0 -42.500600971114224 21.211350079038063 0 0 1 0
314 1 0 -36.98359020504177 22.102065928192008 0 1 0 0
757 1 0 -27.021986099853248 21.515667961073046 0 1 1 0
525 1 0 -17.24928988118533 20.78127935772805 0 0 1 0
219 1 0 -11.651888885704505 21.289507519998946 0 1 1 0
195 1 0 -5.611376259642022 22.77123387313998 0 0 0 0
669 1 0 9.758907932833578 20.956077189914307 0 0 0 0
186 1 0 13.64896894724682 23.307853178216703 0 0 0 0
593 1 0 24.194384720594872 22.25468256281034 0 0 1 0
131 1 0 42.306594196247595 22.157590832783576 0 -1 -1 0
727 1 0 59.34541963495885 21.659032220236163 0 0 0 0
500 1 0 65.75829227367441 21.023065065970723 0 0 0 0
72 1 0 76.12517443040008 20.78814046191985 0 0 -1 0
725 1 0 81.15312764228207 21.11392402090208 0 -1 0 0
81 1 0 86.00095757994862 21.322989586655158 0 -1 0 0
359 1 0 92.53219941025175 21.899370761791424 0 -1 0 0
366 1 0 -40.28698549765511 25.93652530895458 0 0 0 0
747 1 0 -36.63801145474832 25.09288641889495 0 0 0 0
649 1 0 -28.4403554800442 26.479270863494637 0 0 0 0
491 1 0 -25.82592978669217 25.04669186178401 0 0 0 0
172 1 0 -21.429787636053156 24.962703017400116 0 0 0 0
10 1 0 -15.690022388202458 24.796580743570132 0 0 0 0
296 1 0 -17.89800024613438 27.25726767999116 0 1 0 0
752 1 0 -12.334848684974062 26.594672859146055 0 0 0 0
583 1 0 -9.612671903237151 24.033885488740314 0 0 0 0
163 1 0 5.5125868716338635 25.818495485096882 0 0 -1 0
479 1 0 22.371941386394774 26.054452441728813 0 0 0 0
147 1 0 27.43552241368289 24.7186476183868 0 0 0 0
222 1 0 38.2337926635173 24.67257563486864 0 0 -1 0
660 1 0 47.085487344693135 24.704078042365225 0 0 1 0
278 1 0 54.22481322659022 24.091946736029943 0 0 -1 0
735 1 0 68.23291439872787 26.454922828184067 0 0 0 0
740 1 0 77.18039852106492 25.0958948539649 0 -1 0 0
707 1 0 82.4415439668309 25.777992225197444 0 -1 0 0
605 1 0 86.37814359509149 26.42779601209668 0 -1 0 0
737 1 0 -26.393252263514963 30.310628940685618 0 0 1 0
336 1 0 -21.1049414290237 28.351791593622668 0 0 0 0
742 1 0 -15.42233681367552 30.263849936944858 0 0 1 0
284 1 0 -9.631104179920907 29.2314722873743 0 0 0 0
200 1 0 5.01613248913666 30.400538215487327 0 0 0 0
317 1 0 10.76688858147255 28.17458281948456 0 0 -1 0
504 1 0 13.63599924552818 27.703591731566643 0 -1 0 0
645 1 0 25.493878281115524 28.109943685922428 0 0 0 0
349 1 0 30.09512480127576 27.817617802327185 0 -1 0 0
168 1 0 35.59736835357458 29.832565008017095 0 1 0 0
392 1 0 39.11921356900606 28.813126614369846 0 0 0 0
423 1 0 47.70609243248804 28.231942842226786 0 0 0 0
345 1 0 54.75260393512568 29.895961862813103 0 -1 0 0
680 1 0 59.72005320984886 29.31271756370257 0 0 0 0
386 1 0 67.83591627175079 30.44485753991732 0 -1 0 0
89 1 0 70.69727850601721 28.13842573567646 0 0 -1 0
114 1 0 86.15054329990606 29.34699937973265 0 0 -1 0
45 1 0 95.00891327368326 29.17527416929504 0 -1 -1 0
382 1 0 -45.212272762849686 31.44994571527722 0 0 0 0
360 1 0 -24.186253341810048 33.24916455425706 0 0 0 0
254 1 0 -19.09583179928131 33.54106778878286 0 0 0 0
599 1 0 -13.077219944351464 32.1810244691053 0 0 0 0
627 1 0 -2.057405479212172 32.60490174463818 0 0 1 0
590 1 0 1.9970069905036694 31.00288492399896 0 0 0 0
729 1 0 10.86020493599645 31.330913186521506 0 -1 1 0
431 1 0 21.262950562975185 31.595673674361226 0 0 0 0
646 1 0 27.443492371472544 31.468530643575527 0 0 0 0
53 1 0 30.576460843485307 31.16123262420175 0 0 -1 0
478 1 0 39.632087565585934 32.87620638938897 0 0 -1 0
404 1 0 43.30495363850078 31.596597259874326 0 1 0 0
365 1 0 50.3260179738038 33.7005238478428 0 0 0 0
673 1 0 56.152357692859354 33.15470358658896 0 0 0 0
68 1 0 62.92807511709527 31.009544776085228 0 0 0 0
547 1 0 76.6391439957732 31.886908302416064 0 0 0 0
756 1 0 93.47818858344908 32.50281988315182 0 0 0 0
150 1 0 -48.902594222885796 34.48617692509178 0 1 -1 0
611 1 0 -42.07384202905198 35.088730365663444 0 0 0 0
328 1 0 -37.29149811533159 35.05674160484736 0 1 0 0
403 1 0 -28.037833489549048 35.18587331109381 0 1 0 0
32 1 0 -22.815384750871505 36.16962271314759 0 0 0 0
84 1 0 -6.20189238953135 34.21009023945614 0 1 0 0
276 1 0 8.33235462529809 36.182954091370235 0 0 1 0
769 1 0 13.59329768129388 34.61847104020792 0 0 0 0
181 1 0 25.0478294408285 35.25785202787992 0 0 -1 0
451 1 0 29.189095914194347 35.639910951917464 0 1 0 0
342 1 0 35.61142012973072 35.70069361393041 0 0 -1 0
273 1 0 44.719322151945555 35.18947245923594 0 0 0 0
309 1 0 70.9408441809832 36.7151020711922 0 0 -1 0
689 1 0 73.47711737064724 34.24084430316872 0 0 0 0
70 1 0 83.9960888144872 37.22718413115675 0 0 -1 0
637 1 0 84.83732391450492 33.90406934037324 0 0 0 0
384 1 0 -46.76823822882179 38.053002928833905 0 0 0 0
761 1 0 -34.67747472407401 38.328814721761475 0 0 0 0
87 1 0 -29.26242802316382 39.15977478130847 0 1 -1 0
142 1 0 -12.408798355091065 38.93002232735757 0 -1 0 0
281 1 0 -8.962871702259585 37.2011372506623 0 1 0 0
391 1 0 -4.804704643299649 37.964632459516935 0 0 -1 0
766 1 0 -0.5882534327461819 39.133530423237694 0 1 1 0
102 1 0 2.793202036670761 39.58414057125978 0 0 -1 0
194 1 0 10.534787006739492 39.352399049720496 0 0 -1 0
408 1 0 22.91672094442658 37.21310109392644 0 0 0 0
130 1 0 24.72747411586658 39.862640499813935 0 0 0 0
25 1 0 34.97991966864286 39.994056862729586 0 0 0 0
731 1 0 41.446173708364405 37.49816981005379 0 0 0 0
466 1 0 48.08246109413803 38.81033781012489 0 -1 0 0
524 1 0 51.8047078128704 38.72616797371472 0 0 0 0
688 1 0 56.2044987508427 37.622318653650154 0 0 0 0
15 1 0 64.69417515639013 37.68784208721134 0 -1 -1 0
80 1 0 79.92689803026195 37.745351969814074 0 0 0 0
20 1 0 -45.64395946956763 43.61906857898556 0 0 -1 0
237 1 0 -41.74805235079129 40.876359921463795 0 0 0 0
571 1 0 -38.81898540169312 42.270036061436464 0 0 0 0
198 1 0 -33.11486238066768 42.5447167222135 0 0 -1 0
674 1 0 -20.728239149851422 43.2727507711307 0 1 1 0
592 1 0 -17.711513358613246 40.91400535073311 0 0 0 0
606 1 0 -8.130909014290976 42.55209464957965 0 0 1 0
235 1 0 -3.164325729489706 42.010409656336925 0 1 -1 0
517 1 0 0.3309310154560467 42.60109452082739 0 0 0 0
441 1 0 4.975059447728258 41.00334249702827 0 1 0 0
633 1 0 14.925903720460338 41.3742149756222 0 0 0 0
472 1 0 27.129581880760735 42.440942001991424 0 -1 0 0
656 1 0 42.74352333658975 42.567983639633134 0 0 0 0
42 1 0 45.56302811078045 41.81108484429588 0 0 0 0
294 1 0 57.47318142962243 41.223124577179085 0 0 0 0
531 1 0 65.23499074751362 40.66749258129783 0 0 0 0
362 1 0 71.18730219381612 41.26300438257098 0 -1 0 0
312 1 0 81.74161053335504 41.33345499822059 0 0 0 0
623 1 0 84.70189460552574 43.97829108191473 0 -1 0 0
155 1 0 87.32400002881738 41.3172475616101 0 -1 0 0
12 1 0 91.79423693520883 43.07485191028856 0 0 0 0
657 1 0 95.05701507789905 42.23326234568801 0 0 0 0
505 1 0 -41.698492731051 45.20867457476593 0 0 0 0
582 1 0 -35.05497350187643 45.58190675309216 0 0 -1 0
722 1 0 -25.57458942673757 44.12419903202536 0 -1 0 0
508 1 0 -27.54211993552134 46.65769917578149 0 0 0 0
714 1 0 -21.4546233577118 46.24950766203919 0 0 1 0
770 1 0 -16.61661008116031 44.96395501332157 0 1 1 0
354 1 0 -10.80756609162651 44.64576873187095 0 0 0 0
368 1 0 -3.4421301213965103 45.18312781269263 0 0 0 0
197 1 0 13.100041938981214 44.34716561193828 0 0 0 0
93 1 0 22.320291670371983 44.39115197742836 0 0 -1 0
316 1 0 38.241884170586886 43.89708871738669 0 1 0 0
401 1 0 43.40723269486086 46.79361571324269 0 -1 -1 0
781 1 0 46.345514778511465 45.76089507913926 0 1 0 0
733 1 0 49.130109047823986 44.434084198875325 0 0 0 0
554 1 0 57.41577701506051 44.948025338068454 0 0 0 0
650 1 0 64.80426598105291 44.16379071092523 0 0 1 0
482 1 0 69.96669496219731 45.294840968768995 0 -1 -1 0
257 1 0 79.82862047492854 45.8218836129804 0 -1 0 0
261 1 0 95.72428904522839 46.05170820257464 0 -1 0 0
523 1 0 -43.069230959361356 50.125601483719926 0 1 0 0
515 1 0 -31.81222614719513 49.555228052030515 0 1 0 0
708 1 0 -21.81641430133742 49.81735390041129 0 0 0 0
641 1 0 -13.52360031685885 47.014589329482874 0 0 0 0
48 1 0 -10.619474767116566 48.36405091921683 0 0 0 0
77 1 0 -4.812680077221379 49.71218455859827 0 0 -1 0
24 1 0 10.694382883303541 48.58082540050737 0 0 -1 0
557 1 0 7.834641160128901 49.94951705797902 0 1 0 0
335 1 0 15.587499482051644 49.647994401553966 0 1 0 0
412 1 0 21.47779374702159 49.28294796061516 0 1 0 0
103 1 0 26.048342339866114 48.026213013493155 0 0 -1 0
567 1 0 31.715996638671104 49.144703949278274 0 -1 1 0
145 1 0 37.250640466900144 48.78128069478991 0 -1 0 0
262 1 0 41.03743396080728 49.80545913729962 0 -1 0 0
503 1 0 49.263437853705526 47.36429687527936 0 0 0 0
658 1 0 62.32216091650758 47.13058864189279 0 0 0 0
288 1 0 76.59487357285235 47.433553681067 0 0 0 0
586 1 0 92.06819345526803 47.43561304522928 0 -1 0 0
516 1 0 -47.77787798807364 51.09309501927181 0 1 1 0
324 1 0 -40.40779853462568 52.06158353647191 0 1 -1 0
653 1 0 -25.383612661862465 53.1023465798076 0 0 0 0
487 1 0 -20.43114620308555 52.21233945686161 0 0 0 0
393 1 0 -12.509879116513432 50.83905120231096 0 0 0 0
434 1 0 -2.1865599160663627 53.41102811366937 0 1 -1 0
244 1 0 0.6825041851165071 53.71161010867028 0 -1 0 0
193 1 0 11.277487823221428 51.827054713034435 0 0 -1 0
720 1 0 35.19410675616804 53.05970334222722 0 0 0 0
161 1 0 40.45665674498964 53.29006624383348 0 0 -1 0