LAMMPS data file via write_data, version 29 Sep 2021, timestep = 400057

795 atoms
1 atom types

-51 96 xlo xhi
-51 96 ylo yhi
-51 51 zlo zhi

Masses

1 12.0107

Atoms # charge

2 1 -1.583302744759263e-06 0.15175417536324054 0.7019743027805905 0 0 0 0
1 1 -1.1180304811675423e-06 -1.1048643915056955 1.0114746756945374 0 0 0 0
3 1 4.615992251835732e-07 1.502982924207038 0.9698494562411792 0 0 0 0
4 1 -3.577723934278243e-06 2.3399550103545743 -0.23204506996844343 0 0 0 0
5 1 9.367942887805736e-07 3.521624283166189 -0.19049585977850567 0 0 0 0
6 1 5.331812915981837e-06 4.452216804964005 0.9700197840530757 0 0 0 0
19 1 -2.835958205847644e-06 5.920064869080068 0.7913276014533687 0 0 0 0
20 1 -7.261217199461267e-07 6.504932763171835 -0.652408429433759 0 0 0 0
21 1 2.8954711180778636e-06 7.690657626906088 -0.46089368729529895 0 0 0 0
22 1 -1.187070423479264e-06 8.873749685458224 0.7892515398076471 0 0 0 0
23 1 1.2826593710317524e-06 10.250916092234633 0.7532557560327765 0 0 0 0
24 1 4.688578002592925e-06 10.986341055903539 -0.6295687135476564 0 0 0 0
37 1 1.9083657333968107e-06 12.454273443644183 -0.44631333458944805 0 0 0 0
38 1 -3.17198081131731e-06 13.3928714960922 0.7071794331698661 0 0 0 0
39 1 3.7030693015895066e-06 14.786257399573275 0.8075611485345685 0 0 0 0
40 1 -1.4618373545549623e-06 15.573385303164741 -0.4163681654975304 0 0 0 0
41 1 1.6955688925957002e-06 17.072066996796142 -0.5489835120938102 0 0 0 0
52 1 -5.140774283440147e-06 17.84450098999294 0.7183310324943446 0 0 0 0
53 1 6.231489841204696e-06 19.268767710101198 0.8393569732642299 0 0 0 0
54 1 -4.0052318160122e-06 20.007413831473684 -0.4119236251934861 0 0 0 0
55 1 4.526980327587693e-06 21.177595229914363 -0.24459074774340847 0 0 0 0
56 1 -7.907915472931543e-06 21.888696605500538 0.9855156013216824 0 0 0 0
7 1 3.7350805981578583e-06 -1.0025516144871705 2.203535131546584 0 0 0 0
8 1 -9.265417671936588e-07 0.0003085161751580543 3.4842315603441008 0 0 0 0
13 1 5.011920650721535e-08 -0.590419683429338 4.563996251858801 0 0 0 0
14 1 1.355616589336639e-06 -0.005661318555999453 5.7824983483052375 0 0 0 0
9 1 -3.2939239118408292e-06 1.633969771990676 3.5322315394833668 0 0 0 0
15 1 1.9079485092943216e-06 1.5253134156147277 5.775138081128334 0 0 0 0
10 1 1.188160532034771e-06 2.2926234662516563 2.20333530249161 0 0 0 0
11 1 -1.2285128651763622e-06 3.722218467907302 2.1851396266933785 0 0 0 0
12 1 -3.973100359953852e-06 4.6096781962627436 3.3266608242184073 0 0 0 0
16 1 1.3093974009295573e-06 2.3494987203054114 4.647641882400304 0 0 0 0
17 1 1.3506925408204862e-06 3.788100359404691 4.4907334291622085 0 0 0 0
18 1 8.862297994280399e-07 4.546736536825146 5.7514826045946705 0 0 0 0
25 1 2.761085998448376e-06 6.048475869203743 3.148894512288086 0 0 0 0
31 1 2.906861343368594e-07 5.984778314774685 5.656183798197073 0 0 0 0
26 1 -2.487610518409067e-06 6.808990292685061 1.9164262358861255 0 0 0 0
32 1 8.33064133301531e-07 6.755309113354336 4.495268720571536 0 0 0 0
27 1 1.0626151166134856e-06 8.216100705182802 1.988225894226574 0 0 0 0
28 1 -3.1318391261817013e-06 9.011001654420019 3.3260743295733244 0 0 0 0
29 1 -8.359801421525814e-07 10.454397866268144 3.20581215289111 0 0 0 0
30 1 -3.28618788465046e-06 11.157088456498677 1.9202438228116152 0 0 0 0
33 1 -2.147555917035582e-06 8.201871899495321 4.439475149953364 0 0 0 0
34 1 -4.379756364386589e-07 8.979869382832838 5.713850257867693 0 0 0 0
35 1 2.9182712195999216e-06 10.444892205091302 5.627127881399659 0 0 0 0
36 1 -2.768406553575742e-06 11.171403177546813 4.46058617059447 0 0 0 0
42 1 4.820731020028363e-06 12.615892059781546 1.7860560345444125 0 0 0 0
43 1 -2.2564211539025103e-06 13.326579269607317 3.146427823490022 0 0 0 0
44 1 1.3201029235090922e-06 14.864516664471779 3.2083208097724407 0 0 0 0
45 1 -1.3608418802726896e-06 15.639095822526068 1.9828134828027952 0 0 0 0
47 1 -6.606032560071973e-07 12.670591116542296 4.379797107832428 0 0 0 0
48 1 7.531569891777723e-07 13.312013315586945 5.771406620760603 0 0 0 0
49 1 3.6050704492751606e-06 14.730035131323808 5.875467221416099 0 0 0 0
50 1 -2.0214319930017544e-06 15.37964712421144 4.573265979135642 0 0 0 0
51 1 3.8007677092902203e-06 16.87063725784426 4.619335517531993 0 0 0 0
46 1 1.5469337786289117e-06 17.11645249419013 2.018645257174935 0 0 0 0
58 1 -1.9679930983382277e-06 17.5646793628197 3.3395720653628134 0 0 0 0
59 1 4.0631083226758125e-06 19.009578452656967 3.4588076813288837 0 0 0 0
60 1 -3.6813469922528097e-06 19.776905340122156 2.209960074985884 0 0 0 0
61 1 3.753766772834899e-06 21.21628671381121 2.269019348339821 0 0 0 0
62 1 -4.1858096461872e-06 22.00964241210583 3.5082795223931567 0 0 0 0
64 1 -8.033618055514058e-09 17.586656469838722 5.863905206977079 0 0 0 0
65 1 2.743661388825147e-06 19.01747981031601 5.915155859469186 0 0 0 0
66 1 -6.720287139314052e-06 19.75838898294485 4.673778811169658 0 0 0 0
67 1 2.4534189892316816e-06 21.174192138417446 4.703778054616125 0 0 0 0
68 1 -4.133638169742659e-06 21.984075546889052 5.951769868861191 0 0 0 0
130 1 8.282517089674979e-07 -0.5535500027495629 7.2285451103161815 0 0 0 0
131 1 -4.294881065566164e-07 0.33182224117029385 8.38267346475677 0 0 0 0
136 1 -1.2981520650379164e-06 -0.13831973122914293 9.841784918693765 0 0 0 0
137 1 -7.418903330211335e-08 0.5102869670873769 11.167102481753025 0 0 0 0
138 1 4.65733951404701e-09 1.9033246043416545 10.891675984230698 0 0 0 0
132 1 5.631176503359536e-07 1.8013012731644134 8.323415966657993 0 0 0 0
133 1 -3.6548007919662284e-06 2.369096343223164 6.966743525678522 0 0 0 0
134 1 6.628007703096683e-07 3.8757520612639396 6.963382182871888 0 0 0 0
135 1 -6.588527101600294e-07 4.588392211073341 8.245258648890761 0 0 0 0
139 1 3.570170806210804e-07 2.5653368238845533 9.548296837993998 0 0 0 0
140 1 1.6063410667316314e-06 3.951075071481646 9.524922371958349 0 0 0 0
141 1 -2.781091873085839e-06 4.6459919519816415 10.752368853227283 0 0 0 0
145 1 -9.366151010395396e-07 6.033226119210846 8.11400810695049 0 0 0 0
151 1 3.1418171347816215e-06 6.120697125524328 10.7246677388012 0 0 0 0
152 1 -4.050810456922294e-06 6.6812666198171815 9.43170408966196 0 0 0 0
146 1 -4.267820116060639e-07 6.789668375159964 6.847167167488632 0 0 0 0
147 1 4.550439880478263e-06 8.21612359836627 6.874126197768475 0 0 0 0
148 1 -3.3300669520369697e-06 8.961564948757841 8.20301776657241 0 0 0 0
149 1 -6.572402484125717e-07 10.442703620953322 8.213685866655625 0 0 0 0
150 1 2.7525490685909038e-06 11.11447883130562 6.880911334215203 0 0 0 0
153 1 -7.917974612012268e-07 8.119075470994991 9.36753839557911 0 0 0 0
154 1 1.3669381944414472e-06 8.8948815118347 10.57157508142841 0 0 0 0
155 1 2.0782157532095447e-06 10.355929575359061 10.626717925696926 0 0 0 0
156 1 -9.074176439000103e-07 11.182565063455995 9.397352433693976 0 0 0 0
158 1 3.979497644746033e-07 8.259492568904173 11.924735255525727 0 0 0 0
157 1 3.73732451049158e-07 6.867774788116393 11.967393566291458 0 0 0 0
159 1 -2.005054243379989e-06 11.112771562209897 11.888535781683114 0 0 0 0
160 1 1.8991969755882687e-07 12.584498155897252 7.033151587387469 0 0 0 0
161 1 -3.5328404674947467e-06 13.186846489069033 8.295778598848075 0 0 0 0
162 1 8.984045731935675e-07 14.701119415044836 8.416043940293228 0 0 0 0
163 1 -9.850112603834726e-07 15.44383247670679 7.220855333432944 0 0 0 0
164 1 7.606781008487329e-07 16.868469486841242 7.208974742498588 0 0 0 0
165 1 2.750206822318968e-06 12.625222778222994 9.534743969593762 0 0 0 0
166 1 -6.937733491862996e-08 13.37738929632951 10.771166976143238 0 0 0 0
167 1 -1.3431312772954618e-06 14.780106376774588 10.804340210755836 0 0 0 0
168 1 -1.8260580407075677e-06 15.57163223629345 9.60771087712695 0 0 0 0
169 1 3.7549594777142037e-06 17.000900410594962 9.674349136198046 0 0 0 0
172 1 4.837425815966412e-06 16.917071933735965 12.154669528567121 0 0 0 0
171 1 -8.820349787982962e-07 15.439987909137745 12.125098944562755 0 0 0 0
173 1 -1.6199485211865206e-06 17.707248804636645 8.43018655750192 0 0 0 0
174 1 2.334282012052269e-06 19.115783639134552 8.328570343997773 0 0 0 0
175 1 -3.6379846859724285e-06 19.96312641019354 7.200572852096435 0 0 0 0
176 1 4.834400929472349e-06 21.378716852682796 7.239113230817158 0 0 0 0
177 1 -5.611304501600134e-06 22.14047425648581 8.525088101975186 0 0 0 0
179 1 -7.062698894673425e-06 17.738590344111028 10.911385282509404 0 0 0 0
180 1 3.17022579668369e-06 19.12640672765995 10.897690046781566 0 0 0 0
181 1 -1.859610776575038e-06 19.820667424254914 9.591427532537518 0 0 0 0
182 1 5.9232921857457765e-06 21.290665971962596 9.71401861021797 0 0 0 0
183 1 -5.799016460812656e-06 21.999945147677913 10.92714092393838 0 0 0 0
142 1 1.0996987143963022e-06 -0.27378135800942077 12.506498579499056 0 0 0 0
237 1 -2.808314462775241e-06 0.4758588531487923 13.727963250823787 0 0 0 0
240 1 -1.783193576770925e-06 0.24095432696109828 15.285732122723376 0 0 0 0
241 1 4.6733809616616995e-06 -0.14025058592811768 16.41333255397389 0 0 0 0
143 1 -5.911828495075433e-07 2.5972426625987897 12.102360574708483 0 0 0 0
144 1 1.1315246005311197e-06 4.045968296559712 12.097067639737647 0 0 0 0
238 1 2.20336345016503e-07 1.8416171015961844 13.497946587460932 0 0 0 0
242 1 -1.5553787431205057e-06 1.797230071534091 15.765499034938143 0 0 0 0
239 1 3.518858196910335e-07 4.811916011031786 13.29124508929031 0 0 0 0
243 1 7.979518231587823e-08 2.6662106697553827 14.58549471568252 0 0 0 0
244 1 1.0435881846460049e-06 4.095304263628199 14.554530521466685 0 0 0 0
245 1 -2.9620522634180024e-06 4.827512357021854 15.820381212028495 0 0 0 0
252 1 4.316293128331372e-07 6.2508526611963875 13.24652967595143 0 0 0 0
255 1 -1.4821220831184867e-07 6.241394556845878 15.714048541953213 0 0 0 0
250 1 3.736661236090899e-06 3.9878707490186875 17.007765197716623 0 0 0 0
249 1 -2.0347593751579574e-07 2.580446429470287 17.041794798291082 0 0 0 0
262 1 2.2425681046114865e-06 6.9951247008541335 16.888861782610032 0 0 0 0
256 1 -1.1038044478647868e-06 7.033067032090375 14.543842368267134 0 0 0 0
253 1 -2.590738042616836e-06 9.061662551005902 13.122654895926576 0 0 0 0
254 1 1.931177106277715e-06 10.54281958998447 13.21476339356829 0 0 0 0
257 1 2.4907687001182732e-06 8.47111642419861 14.459103065679265 0 0 0 0
258 1 -2.3519789636716748e-07 9.183982162440243 15.707525825651144 0 0 0 0
259 1 -2.0690745324708493e-06 10.625222700078108 15.731202038483058 0 0 0 0
260 1 2.3206218956808855e-06 11.33452033945107 14.364480011704128 0 0 0 0
266 1 -1.604948489337954e-06 11.286654806953583 16.953137876345263 0 0 0 0
263 1 -2.192309590670627e-06 8.487082680662496 16.92954984379804 0 0 0 0
170 1 3.5273237629918075e-06 12.538935611515404 12.036391604071747 0 0 0 0
267 1 -1.0507274550639045e-06 13.274335220367778 13.321965018476478 0 0 0 0
268 1 1.6146079830844928e-06 14.731656848491104 13.329788306477369 0 0 0 0
269 1 -6.972214921935338e-07 12.768831248027455 14.589523306839423 0 0 0 0
270 1 -1.6220878917005965e-06 13.515274554497271 15.90454960826817 0 0 0 0
271 1 3.4490204153247994e-06 14.914719134997458 15.823320571919945 0 0 0 0
272 1 -1.989219337104886e-06 15.511339004798359 14.590539220573131 0 0 0 0
273 1 6.22497406316258e-07 16.962846560028947 14.62834902241863 0 0 0 0
277 1 -7.32959743073025e-07 15.691304267979596 17.165134918952837 0 0 0 0
278 1 -2.023791766808669e-08 17.05043452819604 17.25580607328011 0 0 0 0
274 1 -7.230209682837496e-07 12.773271080348124 17.129409933040662 0 0 0 0
185 1 -2.025481343287394e-06 19.86194866222152 12.147433678275666 0 0 0 0
186 1 4.796426860291525e-06 21.369051419903762 12.225447894673353 0 0 0 0
279 1 -2.414903469777352e-06 17.735459111916626 13.294515456522738 0 0 0 0
280 1 3.889876969802308e-06 19.120207763439737 13.35227296274287 0 0 0 0
281 1 -6.429547559819171e-06 22.023747395613274 13.45196907772561 0 0 0 0
283 1 5.0846858657555e-07 17.687174356658968 15.876906535693688 0 0 0 0
284 1 5.768784498309809e-06 19.135388261328824 15.837997993240108 0 0 0 0
285 1 -6.19208524327286e-06 19.782920868619104 14.614213682693745 0 0 0 0
286 1 5.820276883568287e-06 21.264876486001345 14.763303003183035 0 0 0 0
287 1 -4.7044753159544705e-06 22.117803002619176 15.860038889704358 0 0 0 0
291 1 -2.873377709655678e-06 20.006583371629276 17.040163157248273 0 0 0 0
292 1 2.986780112165799e-06 21.378559783824276 17.17262940611318 0 0 0 0
246 1 -3.6246067238766833e-06 0.35225624117067883 17.816540236373864 0 0 0 0
247 1 1.1604286754840487e-06 -0.41279812993706627 18.863624782263877 0 0 0 0
345 1 2.860252193703783e-07 -0.6173797723877551 20.04505303644538 0 0 0 0
346 1 7.59754889188835e-07 0.3510321685174446 21.034703050663197 0 0 0 0
248 1 9.71219822815117e-07 1.8562390963533764 18.24909052642685 0 0 0 0
251 1 -9.366230722396285e-07 4.773192060760637 18.288145057446517 0 0 0 0
261 1 -1.2704032943747223e-06 6.182753258643899 18.117745729164835 0 0 0 0
347 1 -1.1802901868432358e-06 1.7823441511729092 20.807906509729694 0 0 0 0
348 1 -1.9023242918414507e-08 2.513182543820797 19.508289163497402 0 0 0 0
349 1 2.2263172300002187e-06 3.958339351557361 19.471673068749507 0 0 0 0
350 1 6.290514460785546e-07 4.642135104822006 20.725297761986187 0 0 0 0
355 1 -1.0093658513246617e-06 3.9302328216164484 21.96776676236521 0 0 0 0
360 1 1.9910835935901816e-06 6.1477312689201415 20.64002416953146 0 0 0 0
354 1 -1.7036674127487994e-06 2.4773630911520335 22.0851559093988 0 0 0 0
367 1 1.4184727332236524e-06 6.788041574691614 21.913826929665948 0 0 0 0
361 1 -6.144927310186565e-07 6.903276066718043 19.35859981528527 0 0 0 0
264 1 -9.938759566244237e-07 9.087959408504878 18.20932452884797 0 0 0 0
265 1 1.3334033375916876e-06 10.522967595035158 18.224161919959556 0 0 0 0
362 1 -1.054217617056652e-06 8.377430741070174 19.503621425053876 0 0 0 0
363 1 3.5186440394963103e-06 9.030158780026625 20.790083680192513 0 0 0 0
364 1 -2.8376353690198752e-06 10.425525434703784 20.62400290901162 0 0 0 0
365 1 -9.931505824678499e-08 11.270685238881237 19.46273293667908 0 0 0 0
368 1 -1.1702173975253194e-06 8.222088609227574 22.006967526752874 0 0 0 0
371 1 4.032931616854141e-06 11.114061455894042 21.899424091450314 0 0 0 0
275 1 2.3621397244460995e-06 13.514107228541913 18.41842701379227 0 0 0 0
276 1 -6.749944884421044e-07 14.977003427616618 18.41885978073615 0 0 0 0
375 1 -2.856904719170106e-06 12.761969712679871 19.584690558864168 0 0 0 0
376 1 1.814266264645037e-06 13.40681103135601 20.807606795520446 0 0 0 0
377 1 -1.2372742175595364e-06 14.85557400025966 20.933677694894214 0 0 0 0
378 1 6.872787568917849e-08 15.655166238933635 19.676691249491082 0 0 0 0
380 1 -8.305483386386592e-07 12.53231920791308 22.011324092284546 0 0 0 0
383 1 2.8831540229840025e-06 15.479864167040363 22.23482857434755 0 0 0 0
379 1 6.473128517023308e-07 17.078898588966474 19.775814756570835 0 0 0 0
384 1 -3.265167145459491e-06 16.89998135095415 22.209492210587246 0 0 0 0
389 1 -5.995594051094733e-08 19.22623296076681 20.76955402513132 0 0 0 0
390 1 1.4785832385469377e-06 19.94244116294338 19.529469699420428 0 0 0 0
391 1 1.901191232833721e-06 21.375533103352744 19.56350160276705 0 0 0 0
397 1 -1.9466274638890724e-06 21.217156379300913 22.10081231441803 0 0 0 0
396 1 5.935363497355794e-07 19.795327237721253 22.10126249145519 0 0 0 0
392 1 -1.2664778908794139e-06 22.066437182332194 20.889149948477222 0 0 0 0
289 1 -2.2927161358321513e-07 17.76317649224294 18.513908939102166 0 0 0 0
290 1 1.7255614229508276e-06 19.211127489849083 18.2719985078194 0 0 0 0
293 1 -2.3680012415025486e-06 22.226430505494445 18.397532532821064 0 0 0 0
388 1 1.135799493477696e-06 17.78097295436675 21.056215452987193 0 0 0 0
352 1 -6.27388191823397e-06 -1.091475484592216 23.16363077919798 0 0 0 0
357 1 3.5098542027212076e-06 -0.655099838819087 24.2958609776721 0 0 0 0
452 1 1.3953872912787768e-05 0.2096571212927169 25.7873565124079 0 0 0 0
455 1 -1.2557210962396703e-05 -0.004197538115589205 27.101125138102663 0 0 0 0
351 1 2.6162535364474687e-06 0.267826420124859 22.679143116153377 0 0 0 0
453 1 -5.613595738852145e-06 1.6492683558988634 25.720008925247477 0 0 0 0
353 1 7.054420256905058e-07 1.6373550701246775 23.25546990011918 0 0 0 0
356 1 2.3835566892588256e-06 4.633477723739686 23.28753640299896 0 0 0 0
358 1 2.563599609116396e-06 2.342647351257937 24.494477766081996 0 0 0 0
359 1 -4.045058708275484e-06 3.8312270781805595 24.50764806883302 0 0 0 0
366 1 -7.102957037333213e-07 6.060686755975414 23.18766866110021 0 0 0 0
454 1 5.906933541077741e-06 4.561311534434639 25.74432674777414 0 0 0 0
458 1 1.5901798622389163e-06 2.3769302095323144 26.99276141059564 0 0 0 0
459 1 -5.603844451258777e-06 3.8297540707900857 26.976539053929915 0 0 0 0
467 1 -2.921822606687108e-06 6.014004277379725 25.740961706998814 0 0 0 0
471 1 1.2432735967612962e-06 6.796056859955472 27.009495458155957 0 0 0 0
372 1 3.1818140543843354e-07 6.74749885052626 24.480584908243195 0 0 0 0
369 1 6.27720648647967e-07 8.96748225740909 23.22759579957357 0 0 0 0
370 1 -2.503486541051425e-06 10.435533831597807 23.20303229504688 0 0 0 0
373 1 -1.5946874289476942e-06 8.240892490714918 24.54536169444504 0 0 0 0
374 1 3.9598088507272755e-06 10.972688696729442 24.49158857319232 0 0 0 0
468 1 2.6256756360254485e-06 8.861875738663025 25.950366515655706 0 0 0 0
469 1 -5.96913569867602e-06 10.257969428798702 25.763040239980587 0 0 0 0
472 1 -2.3627968421535694e-06 8.178018053498663 27.099931101698292 0 0 0 0
475 1 5.790078917038144e-06 11.065128638737663 27.10157221976721 0 0 0 0
381 1 2.7226695608895124e-06 13.209380728366803 23.26722990921505 0 0 0 0
382 1 -2.7959504701538518e-06 14.687520402928913 23.464785267193847 0 0 0 0
385 1 -4.6482266510064485e-06 12.442889630375559 24.49489711727055 0 0 0 0
386 1 6.436221928585173e-06 15.36770539089625 24.724526091691565 0 0 0 0
387 1 -3.229950057130615e-06 16.869436339850186 24.75519067768243 0 0 0 0
482 1 5.151726635323206e-06 13.201153790749606 25.779218854358984 0 0 0 0
483 1 -4.37594826337151e-06 14.541933608341262 25.922767509865874 0 0 0 0
484 1 -5.330692918782687e-06 12.475405607805328 27.11409504256776 0 0 0 0
487 1 6.131755002664052e-06 15.375217711712352 27.19125572940251 0 0 0 0
488 1 -4.764283844334305e-06 16.839987591040014 27.224485191264154 0 0 0 0
394 1 3.129570693531647e-06 17.65031680585539 23.549015885321786 0 0 0 0
395 1 -4.970715493372857e-06 19.153990128432337 23.391136941544094 0 0 0 0
398 1 2.984793304176836e-06 21.88548273638102 23.252460718410127 0 0 0 0
400 1 4.835706336192569e-06 19.7840552137258 24.617431818699732 0 0 0 0
401 1 -3.50827377505053e-06 21.272164298027427 24.519659820503687 0 0 0 0
494 1 4.01800471449415e-06 17.586232075387638 25.954788270046294 0 0 0 0
495 1 -5.569887296046072e-06 19.021366667269728 25.839566052412938 0 0 0 0
496 1 3.0343454679726545e-06 22.052213558754485 25.730624435881687 0 0 0 0
500 1 5.750501060927671e-06 19.879591141913863 26.972212325390338 0 0 0 0
501 1 -5.781217164699259e-06 21.24286671296649 27.02436196019035 0 0 0 0
456 1 3.1771512858831674e-06 0.31404460958947766 28.43250920277449 0 0 0 0
461 1 -2.286983785404484e-06 -0.4813646882963073 29.690872194174997 0 0 0 0
462 1 1.042478058558595e-06 0.272701779283516 30.972065089899907 0 0 0 0
560 1 1.3115265288243805e-06 -0.45686502148359387 32.29114455298987 0 0 0 0
457 1 -1.1661877317541147e-06 1.7217363769226661 28.340611803100696 0 0 0 0
463 1 -4.73307746238355e-06 1.6631486112092708 30.8889640870071 0 0 0 0
460 1 5.930551295836584e-06 4.580644013733735 28.197851951583296 0 0 0 0
464 1 5.83913986207385e-06 2.4124101515571224 29.713743795437345 0 0 0 0
465 1 -4.6864913649177775e-06 3.8199477165459466 29.557549086465656 0 0 0 0
466 1 4.089896597503362e-07 4.59657562488624 30.746979479531788 0 0 0 0
470 1 -2.759218743243752e-06 5.90427687583923 28.19462671857825 0 0 0 0
476 1 -1.175718700750783e-06 6.070119103560538 30.73594765267223 0 0 0 0
563 1 2.295373035858528e-06 2.422062265833585 32.18247494097547 0 0 0 0
564 1 -1.0332038899579787e-06 3.819661109934016 31.9607840141427 0 0 0 0
477 1 3.2202208122278364e-07 6.7176788170029305 29.445337333610592 0 0 0 0
579 1 4.139106707705398e-06 6.773911229192041 32.03103201852811 0 0 0 0
473 1 7.52873871841947e-06 8.98845442968206 28.316487717418685 0 0 0 0
474 1 -7.572203233795205e-06 10.292837685649445 28.291541879555766 0 0 0 0
478 1 -4.807706000635459e-06 8.171025642465938 29.47732256191605 0 0 0 0
479 1 5.420345020379358e-06 8.91513860689534 30.74940820955884 0 0 0 0
480 1 -5.300424883988852e-06 10.273225421562067 30.830248458400078 0 0 0 0
481 1 5.4242736555118465e-06 11.063271396481314 29.640648475117416 0 0 0 0
580 1 -5.2088291786767105e-06 8.133559816998492 32.039615644467844 0 0 0 0
583 1 5.751057465371023e-06 10.987496742074148 32.11645526596325 0 0 0 0
485 1 5.047392758611435e-06 13.205643538930067 28.324664626540613 0 0 0 0
486 1 -6.006369685021551e-06 14.675988162330233 28.39178639751452 0 0 0 0
489 1 -5.9497609327177625e-06 12.493712861264248 29.623730534701842 0 0 0 0
490 1 6.200191650908293e-06 13.294604873054563 30.89650215002294 0 0 0 0
491 1 -6.601692122944203e-06 14.71905217664107 30.96036418686918 0 0 0 0
492 1 5.1572207667785475e-06 15.441359429605548 29.71150035280335 0 0 0 0
493 1 -7.906001110148664e-06 16.890104149321058 29.76113057214009 0 0 0 0
596 1 -6.823506139126689e-06 12.479236558923972 32.17349543309662 0 0 0 0
599 1 5.3532408002335274e-06 15.447478407068436 32.26130128167915 0 0 0 0
600 1 -7.151885982346895e-06 16.90141621176156 32.21054476674085 0 0 0 0
498 1 7.333159335778938e-06 17.648723521199898 28.382641004277872 0 0 0 0
499 1 -5.62301461990572e-06 19.059321749969527 28.29241116206026 0 0 0 0
502 1 5.445513511559419e-06 21.997602211205567 28.287370407860486 0 0 0 0
504 1 4.70519161245575e-06 17.56370487776065 30.93739908566115 0 0 0 0
505 1 -4.211892650513027e-06 19.052745653349636 30.796830969827507 0 0 0 0
506 1 4.256733723582984e-06 19.839132174705433 29.488836706516377 0 0 0 0
507 1 -4.4867464709941185e-06 21.287971975887594 29.606058693722744 0 0 0 0
508 1 7.4907142923602565e-06 21.92400963363382 30.88855786938967 0 0 0 0
613 1 5.662947328642642e-06 19.703733607346447 32.12176480794485 0 0 0 0
614 1 -5.19120705260584e-06 21.24106086763598 32.12855331033177 0 0 0 0
561 1 8.62322137740873e-08 0.19678676492455188 33.59389362806483 0 0 0 0
566 1 -1.3053960337405801e-06 -0.6523672818774711 34.83771668610909 0 0 0 0
567 1 5.4020364860761505e-06 0.21189932817187823 36.08085481970136 0 0 0 0
572 1 -7.340869951938389e-06 -0.43998514531051985 37.428088979879774 0 0 0 0
562 1 -2.315068770276929e-06 1.7398109275780391 33.44923751178766 0 0 0 0
568 1 -1.5516621317476775e-06 1.6968598661926202 35.877397091081825 0 0 0 0
565 1 -3.3017069959312417e-07 4.516755202088401 33.266759941258734 0 0 0 0
569 1 1.0991842160634757e-06 2.4469601275370514 34.627957271209354 0 0 0 0
570 1 -3.234281994154986e-06 3.907185553208122 34.615565998243646 0 0 0 0
571 1 2.4948297715002288e-06 4.673302522706097 35.8969845556699 0 0 0 0
575 1 8.487492428946308e-06 2.288821665890366 37.15991208253128 0 0 0 0
576 1 -1.2052468329123989e-06 3.8214072793846596 37.11935758258648 0 0 0 0
578 1 -2.2798516785133005e-06 5.967187613454952 33.17202392374269 0 0 0 0
584 1 -3.686518196759081e-06 6.138356005060808 35.84318240289711 0 0 0 0
591 1 4.1570738416873976e-06 6.832212907508098 37.0896316721181 0 0 0 0
585 1 4.23754105662727e-06 6.650935028562357 34.50904798283717 0 0 0 0
577 1 5.462218745908021e-06 4.5819710172570005 38.40383255150761 0 0 0 0
581 1 3.1872527770371306e-06 8.898398001504392 33.340182161669134 0 0 0 0
582 1 -6.343102778839926e-06 10.418515564856477 33.388583814879496 0 0 0 0
586 1 -3.861487413950315e-06 8.130120442823264 34.56825484534215 0 0 0 0
587 1 1.491096966170502e-06 8.95263115159337 35.781463102611866 0 0 0 0
588 1 -4.768204165478407e-06 10.393395045282588 35.83532952840901 0 0 0 0
589 1 5.475123630721557e-06 11.267975268332446 34.682926672751414 0 0 0 0
592 1 -3.0664642237110407e-06 8.274875290642413 37.011673952055105 0 0 0 0
595 1 4.189351840731825e-06 11.035509819337317 37.075320893642484 0 0 0 0
593 1 4.976840951041728e-06 8.859034481673255 38.29042335334944 0 0 0 0
597 1 5.988495439715469e-06 13.237397191968459 33.40834242065653 0 0 0 0
598 1 -7.599364909821604e-06 14.73310065740241 33.51020235224546 0 0 0 0
601 1 -4.826700933144301e-06 12.632599741960949 34.71339501050074 0 0 0 0
602 1 3.820094966654197e-06 13.299944736751751 35.99787334648606 0 0 0 0
603 1 -5.703055470818175e-06 14.769320020908653 35.957278559725395 0 0 0 0
604 1 5.86924079649942e-06 15.38761361544162 34.70805696600086 0 0 0 0
605 1 -7.4060055880453834e-06 16.8804967728687 34.72766077784753 0 0 0 0
606 1 -6.406311373226281e-06 12.472868439564023 37.1972980014708 0 0 0 0
609 1 3.3386471716967403e-06 15.54188626139181 37.22256557193324 0 0 0 0
610 1 -4.11172230480733e-06 17.01657559205462 37.22945932740909 0 0 0 0
611 1 6.293910044349871e-06 17.610282811465687 33.519354561535955 0 0 0 0
612 1 -7.209683525633004e-06 19.03974396988858 33.38590297953659 0 0 0 0
615 1 6.758039643457725e-06 21.859806769666644 33.437327899333056 0 0 0 0
617 1 4.455351966331511e-06 17.69611573943182 35.995726633451035 0 0 0 0
618 1 -2.9106720431867905e-06 19.12586140592728 35.98291681937161 0 0 0 0
619 1 5.522424964404804e-06 19.751053223980975 34.65314514203236 0 0 0 0
620 1 -2.814450942092983e-06 21.24827443456099 34.71004525766077 0 0 0 0
621 1 4.713722621951799e-06 21.988056640262208 35.95218675939189 0 0 0 0
625 1 3.777780525911212e-06 19.90026003334607 37.17658268108801 0 0 0 0
626 1 -3.805504730530762e-06 21.331117810068207 37.195657810525674 0 0 0 0
573 1 1.3830281675026451e-05 0.19898537118696202 38.75842516819501 0 0 0 0
689 1 -1.8901157434594862e-05 -0.6658000973309959 39.949962702694215 0 0 0 0
690 1 1.4260691792188085e-05 0.4063761617040876 40.80877123769488 0 0 0 0
695 1 2.5309197243583714e-05 -0.9385507339164276 41.31784626396197 0 0 0 0
701 1 -3.714943994165276e-05 -0.3827099420907311 42.68399096235329 0 0 0 0
696 1 3.291910591732283e-05 0.3707067764543187 43.59917028194092 0 0 0 0
590 1 -3.7587340694505977e-06 6.05914915362628 38.318347247546846 0 0 0 0
574 1 -1.9143078073942388e-05 1.6573253356152515 38.44980459527682 0 0 0 0
691 1 -1.9323470636961604e-05 1.900805389037379 40.96908739425517 0 0 0 0
692 1 1.652640157108476e-05 2.476220735814375 39.622169544721565 0 0 0 0
693 1 -9.8627418373895e-06 3.925689001573254 39.6688668525093 0 0 0 0
694 1 4.735715975083543e-06 4.5986657049643656 41.010364339278745 0 0 0 0
698 1 3.329536923971088e-05 2.579043635830799 42.21297375075515 0 0 0 0
699 1 -1.9735294136825898e-05 3.98211359027274 42.280495874628066 0 0 0 0
704 1 -2.0617444947898522e-06 6.0070702728738405 40.8309660308756 0 0 0 0
705 1 4.216102017062795e-06 6.654325053508101 39.50079000411173 0 0 0 0
711 1 6.284807561492134e-06 6.660376489364494 42.13094246025837 0 0 0 0
700 1 1.552740125460028e-05 4.8107771954334275 43.557256767428875 0 0 0 0
594 1 -1.2359903678940687e-06 10.288526026270347 38.37313890564223 0 0 0 0
706 1 -3.336723363091265e-06 8.111142878785852 39.51468122113559 0 0 0 0
707 1 -9.546226091561305e-07 8.779024301416387 40.836336392495 0 0 0 0
708 1 -2.984392925835244e-06 10.198993475478737 40.84140110873846 0 0 0 0
709 1 1.99558161086133e-07 10.954813684273056 39.68786948079954 0 0 0 0
712 1 7.901613658378714e-07 8.039649327632445 42.01901689273929 0 0 0 0
715 1 5.778824345388511e-06 11.067385590706603 41.96359699011327 0 0 0 0
714 1 -4.024024118500641e-06 10.352198185466957 43.2784846215029 0 0 0 0
713 1 -2.046938991535907e-06 8.930384890132625 43.30592497641298 0 0 0 0
608 1 -4.4334027081011085e-06 14.798981040084646 38.41066284826582 0 0 0 0
607 1 5.732548569600815e-06 13.249480031551508 38.465973436578864 0 0 0 0
719 1 -3.19136305254597e-06 12.48803446569155 39.595543700284416 0 0 0 0
720 1 -3.64996149145036e-07 13.342211467846438 40.78231117645547 0 0 0 0
721 1 -8.61669083099259e-07 14.772643225296353 40.836111746734645 0 0 0 0
722 1 -4.3457402062324624e-07 15.531011617112654 39.60580023199234 0 0 0 0
723 1 -1.75234232102639e-06 16.979134944461894 39.74202403802697 0 0 0 0
724 1 -4.906335743026097e-06 12.520012724911412 42.00208985301354 0 0 0 0
727 1 3.462303650631632e-06 15.501891451094737 42.12655385967994 0 0 0 0
728 1 -1.5626960008230384e-06 16.911373979144347 42.2176698890327 0 0 0 0
726 1 -2.62554065520032e-06 14.760957052288166 43.308621401608534 0 0 0 0
725 1 -5.37708140957438e-07 13.316156772664417 43.189739868759546 0 0 0 0
624 1 -1.4992198410362922e-06 19.131374861877475 38.47314305171955 0 0 0 0
623 1 2.746657289033616e-06 17.709736512020918 38.47116477607031 0 0 0 0
627 1 2.0234987096329204e-06 22.03201869557676 38.49841213012007 0 0 0 0
732 1 1.3986612688379751e-06 17.716237968204748 40.986960241726585 0 0 0 0
733 1 2.488689953006329e-07 19.051948206769143 41.0137556926256 0 0 0 0
734 1 -2.5738200745695217e-07 19.803997746955897 39.73733857266778 0 0 0 0
735 1 2.913166086554453e-07 21.209990246679453 39.676536229952426 0 0 0 0
736 1 -3.3918129618837334e-07 22.039197558123547 40.85681661803366 0 0 0 0
740 1 -6.5382464095598e-08 19.857210413154043 42.27567657033208 0 0 0 0
741 1 -1.8652759295884058e-06 21.275136541301354 42.10595244325664 0 0 0 0
739 1 1.7746550525221672e-06 19.10155328741116 43.52517821845885 0 0 0 0
697 1 -3.825407955474619e-05 1.7792026311022922 43.46397666912149 0 0 0 0
710 1 -1.2150702781960065e-05 6.199155539291927 43.68248518523373 0 0 0 0
702 1 1.8523764095307316e-05 2.58187921448859 44.64832367304814 0 0 0 0
703 1 -1.0526753170050918e-05 3.7911337381134564 44.520346680547924 0 0 0 0
716 1 8.387054842573516e-07 6.976068490302931 44.86970491566652 0 0 0 0
717 1 5.163685077538838e-06 8.127431025315305 44.54498659611389 0 0 0 0
718 1 1.4314287969108275e-06 11.203050408695077 44.61303252978548 0 0 0 0
729 1 9.941076324210263e-07 12.355585921103273 44.40576670120816 0 0 0 0
730 1 2.191506168550128e-06 15.669885718597822 44.578110194979885 0 0 0 0
731 1 -7.235912624636853e-07 16.80043004438043 44.79465618231738 0 0 0 0
745 1 5.239738957302231e-07 21.003582489689553 44.5761857798551 0 0 0 0