LAMMPS data file via write_data, version 14 Dec 2021, timestep = 0

40 atoms
2 atom types

-0.7229091966732948 110.49466263041138 xlo xhi
0 98.2905150804816 ylo yhi
-35 100 zlo zhi

Masses

1 12.0107
2 1.00794

Atoms # charge

2 1 1.0927930565399896e-06 0.639142301830361 1.1596136277515274 0 0 0 0
3 1 2.75117391312224e-06 2.153999586034716 1.2332390920351632 0 0 0 0
4 1 -9.804640830335387e-07 2.974997429375492 0.08332274255388658 0 0 0 0
5 1 -2.050368612394049e-08 4.174808923811891 0.0974534239419673 0 0 0 0
6 1 4.634153606963842e-07 5.0043382468136794 1.2640572680319428 0 0 0 0
11 1 4.024063553764723e-07 0.19649742236573434 2.4700491767524935 0 0 0 0
12 1 1.4878158414652343e-07 0.617905296918183 3.795994225495684 0 0 0 0
13 1 5.8794336076119225e-06 2.129326099605343 3.758897948415688 0 0 0 0
14 1 -1.862901459075833e-06 2.826569455470805 2.5115253909907187 0 0 0 0
15 1 -3.354447551950912e-06 4.283247382588288 2.524158443926069 0 0 0 0
16 1 6.212987016251947e-07 4.977161725135016 3.7768494047186976 0 0 0 0
21 1 1.5731178851230432e-06 0.1340297522271976 5.10854200717648 0 0 0 0
24 1 -1.4516278968382257e-06 2.830944591380464 4.998736565746426 0 0 0 0
25 1 -3.7574455802741324e-06 4.290132444388954 5.044073693826165 0 0 0 0
7 1 9.325812598548477e-07 6.458460533885848 1.2830599623252112 0 0 0 0
8 1 -1.1228224057469038e-07 7.417033139425183 0.19023837543351435 0 0 0 0
10 1 -1.1628903015259429e-06 9.058730708446884 1.0559884013079166 0 0 0 0
17 1 -3.6782162887646908e-06 6.436340629760464 3.8222082439973897 0 0 0 0
18 1 3.298096063950734e-06 7.118730772808517 2.547488739903708 0 0 0 0
19 1 -3.5051340559789923e-06 8.60330030536022 2.4676736025801445 0 0 0 0
20 1 8.044189329092788e-07 9.1332664765237 3.7124062436379552 0 0 0 0
28 1 4.781072647144086e-06 7.137967122219132 5.062042275858122 0 0 0 0
29 1 2.0453822091211216e-06 8.649389413817872 5.024949417137966 0 0 0 0
22 1 -3.2670627742939495e-06 0.6640045212260032 6.3532595548884805 0 0 0 0
23 1 2.544462475006365e-07 2.1485688975089587 6.273485887711024 0 0 0 0
26 1 7.731020871003247e-06 4.98404942251362 6.296791276265802 0 0 0 0
31 1 -6.518348889678061e-07 0.20852205017784006 7.764882605250404 0 0 0 0
32 1 -2.5614400536999593e-06 0.6656536030971931 8.909112886653698 0 0 0 0
33 1 -1.5855205244275083e-06 1.8503230039416265 8.630683997478746 0 0 0 0
34 1 2.0889404110449594e-06 2.8088332251286876 7.537868773921902 0 0 0 0
35 1 -4.5406833587315065e-06 4.262920025661204 7.556900171136031 0 0 0 0
36 1 4.274768290915554e-06 5.092492734029606 8.723490965014697 0 0 0 0
27 1 -9.642457571925472e-06 6.44074732830381 6.30943184327707 0 0 0 0
30 1 -2.562413401074881e-06 9.070795008642797 6.350894863748602 0 0 0 0
37 1 -4.17858681396599e-06 6.292300446138051 8.73760790698058 0 0 0 0
38 1 7.39047982285454e-06 7.113291232540814 7.58770461628713 0 0 0 0
39 1 -1.9891917834684303e-06 8.628139249849657 7.661329519903366 0 0 0 0
40 1 7.510270481070336e-07 9.415147837742309 8.835344522804995 0 0 0 0
1 1 9.246370999416165e-07 -0.14785318037360604 98.2761148418571 0 0 -1 0
9 1 2.655812945756564e-06 8.601630536303164 98.20243087561477 0 0 -1 0

Velocities

2 0.0007921189402989602 0.006055703816703083 0.0006631905399166885
3 -0.004567453703066204 -0.005036403203092567 0.007815441644092813
4 0.0006211251522310855 -0.009743198704071282 -0.008583157997384162
5 -0.011783306098615588 0.0022628120166927755 -0.0038534642158090274
6 -0.0063424766702886775 0.013006325709867211 -0.004328946255035544
11 -0.006028276162808235 0.013633106460585173 0.0011619332303067474
12 0.00976656841584821 0.011591850311325803 0.010688283897506286
13 0.0016276168500986223 -0.00418725745958688 0.009319094896318426
14 0.004559443934766011 -0.008508139685830212 0.0021181933230659997
15 0.01071196598843194 -0.009231362767546865 0.0019994271355352005
16 0.005283551478734468 -0.001801845688526348 -0.0026079523529621133
21 0.00900066426080227 -0.004431715042029832 0.008417729180638529
24 0.0013746354994572728 0.007380954548538544 0.002846272435549239
25 0.001982981376330284 -0.0009243911137259226 0.0007393723201971037
7 0.009048117715569287 -0.01124221326778265 0.0048092705975648015
8 -0.013308686394051692 -0.008811420728173949 0.012215996544874595
10 6.5005611048608e-05 0.009537212848790885 -0.0057219206453464925
17 -0.0023628191897438026 -0.002765575915633739 0.004895811246328408
18 -0.0076779330059091825 0.009414955825052829 -0.01136392103179123
19 0.004498123646559878 0.013572528656925936 0.0038047387893128276
20 -0.009857521987910732 0.006436989120690605 0.01175609702129199
28 -0.0117396074612255 0.009841265759886244 0.012971212704559766
29 0.002287445921639313 0.0013752689941012612 -0.010644510467543732
22 -0.006631120804229371 0.007050914266314219 0.007384836241546359
23 -0.008846539794561056 0.0024071758589430023 -0.0018144957018163804
26 -0.00346160313373719 -0.0021758835957741292 -0.005680080418244608
31 0.011595499044376805 -0.007214953421471459 -0.013181268464645858
32 0.0012947738627126606 -0.006267088087259942 -0.007264939963084774
33 0.008287163797580892 -0.007479966458368601 0.0011890808069372298
34 0.005947850876128446 0.012026560723351615 -0.011412805039785262
35 0.006570638806121277 -0.005979585625468204 0.00039210668570185855
36 0.00219048499496562 -0.004925945270365239 0.010272427281927107
27 -0.002865774228802802 -0.0035573317097702633 0.006746463508036503
30 0.012331233247427806 -0.005908989970800604 0.00896721838287576
37 -0.0075806922676599055 -0.010902375649953295 0.0016156538066844596
38 -0.008931425281109451 -0.010194262699664289 -0.0031332041242449946
39 -0.002536851718011699 -0.010368029704415532 -0.010695948123796444
40 0.001987204742725441 0.012622356600213451 -0.006778106799210397
1 -0.010053610953652488 -0.010383147577356413 -0.01369478857331656
9 0.012751484691528413 0.013825101828685593 -0.012030342046751144
