LAMMPS data file via write_data, version 14 Dec 2021, timestep = 400100

795 atoms
1 atom types

-51 96 xlo xhi
-51 96 ylo yhi
-51 51 zlo zhi

Masses

1 12.0107

Pair Coeffs # lj/cut

1 0.066047 3.4

Atoms # charge

528 1 0 -31.28564903620132 95.7655516648356 0 1 -1 0
72 1 0 -28.628267093069457 -48.61850398920714 0 0 0 0
764 1 0 -15.135176741091092 -48.97495293744907 0 0 1 0
760 1 0 -6.473703158540029 -49.61185246304428 0 0 1 0
62 1 0 3.182295552002217 -50.43104346417982 0 0 0 0
641 1 0 25.821499180427747 -49.184662593568056 0 0 1 0
275 1 0 38.4830175226011 -49.23859366456684 0 -1 1 0
784 1 0 57.4627111189601 -48.972096891364785 0 0 1 0
611 1 0 65.43860745276105 -48.10556327205418 0 0 1 0
791 1 0 72.82528622354099 -49.841883719777876 0 0 1 0
80 1 0 75.86816487041678 -50.297479245119234 0 0 0 0
386 1 0 85.8350232055389 -49.509012832373806 0 0 1 0
121 1 0 -40.82668826789945 -44.66328408828546 0 1 0 0
738 1 0 -32.3543272338081 -47.643086207101085 0 0 1 0
441 1 0 -28.290281292290786 -44.43896817945447 0 1 0 0
190 1 0 -18.67068814970142 -46.4616270530813 0 0 0 0
149 1 0 -15.732883932805667 -44.42091109705679 0 0 0 0
446 1 0 -5.918205847338443 -44.800202604003516 0 0 0 0
439 1 0 -0.7479025722100205 -47.611859763488354 0 1 0 0
223 1 0 10.685336554444389 -45.794824386081494 0 0 0 0
206 1 0 13.619926091901599 -45.15607311618147 0 0 0 0
596 1 0 19.60594613427077 -46.931252398974586 0 -1 1 0
54 1 0 30.5371313225231 -46.54802888899141 0 -1 0 0
291 1 0 34.27970095942265 -47.1426149299091 0 0 0 0
353 1 0 43.16956091026296 -46.302981538074995 0 -1 0 0
294 1 0 57.1712207253452 -44.876216253488245 0 0 0 0
354 1 0 62.68232588702933 -46.89565031058282 0 -1 1 0
334 1 0 60.05961754223122 -44.59988344074768 0 0 0 0
644 1 0 64.0000274166825 -44.217051996984125 0 -1 1 0
435 1 0 68.54801445525882 -47.01112816020845 0 0 0 0
774 1 0 70.93296788730223 -45.05239737981624 0 0 1 0
655 1 0 75.26122497382798 -46.45147189239043 0 0 0 0
574 1 0 78.35597065480707 -45.15129502998669 0 -1 1 0
229 1 0 -45.28380221218965 -43.1866537741458 0 1 0 0
460 1 0 -33.24028187585469 -43.177912849574405 0 0 0 0
31 1 0 -21.683605722020623 -43.44354527330658 0 0 0 0
193 1 0 -8.248706182616882 -42.54053359770601 0 0 0 0
660 1 0 5.181948854400156 -43.09893129639303 0 0 1 0
501 1 0 13.11047457048088 -41.60027804324045 0 0 1 0
173 1 0 16.585018720344767 -42.88447861020552 0 0 0 0
408 1 0 25.332290087218745 -43.348099741228964 0 0 0 0
425 1 0 35.318083439790286 -43.37529596023862 0 0 0 0
210 1 0 65.17598510109613 -41.40715472099886 0 0 0 0
753 1 0 84.45325782890812 -43.1826218032704 0 0 1 0
603 1 0 91.84518952559367 -44.228230437837055 0 -1 1 0
702 1 0 -44.828897419501 -39.47774536928893 0 0 1 0
141 1 0 -38.297079839926184 -40.40345313204537 0 0 0 0
302 1 0 -29.912738472880356 -40.45986901987191 0 0 0 0
595 1 0 -13.98763026839549 -39.78256683978212 0 0 0 0
312 1 0 -7.847510574352213 -37.88239903658415 0 1 0 0
360 1 0 0.9753791889357477 -41.02127932690538 0 0 0 0
91 1 0 -2.299769817737356 -40.59932949944112 0 0 0 0
652 1 0 29.786594660494316 -40.479944432209194 0 0 0 0
277 1 0 35.175169414266136 -38.49441867375027 0 0 1 0
180 1 0 48.564682980716356 -40.86011905835363 0 -1 1 0
142 1 0 54.37316605881808 -39.942434317576115 0 -1 1 0
750 1 0 75.14570643807441 -39.83180893431459 0 0 1 0
94 1 0 81.9756660974386 -40.730315057164766 0 -1 0 0
314 1 0 89.68542034554207 -39.63151078825635 0 0 0 0
204 1 0 -47.84598429741063 -34.67545734028437 0 0 0 0
463 1 0 -43.09011482508427 -36.52659441319903 0 0 1 0
316 1 0 -34.626972113835286 -36.29109136742857 0 1 0 0
676 1 0 -27.5862748148127 -37.68325245185365 0 1 1 0
789 1 0 -20.663897263964376 -38.03531106717802 0 1 1 0
694 1 0 -16.33012385566654 -37.0432899396343 0 0 1 0
292 1 0 2.6949638101948548 -37.588143418103016 0 0 0 0
10 1 0 7.891534858696833 -36.31356668015109 0 0 0 0
602 1 0 13.558960486744503 -36.735089535243645 0 0 1 0
466 1 0 27.84071962582773 -37.5432831664354 0 -1 0 0
637 1 0 39.67496249887682 -37.82926306684238 0 0 1 0
73 1 0 43.234558853206224 -36.5398437335148 0 0 0 0
414 1 0 48.86394274595688 -35.2159710279289 0 0 1 0
721 1 0 60.779713886765734 -37.83194054703271 0 0 0 0
526 1 0 77.66229113229313 -35.89035183839271 0 0 0 0
58 1 0 88.26737671057836 -36.7796263903915 0 -1 0 0
257 1 0 94.09056835817027 -37.00527846301847 0 -1 0 0
103 1 0 -38.35833466487154 -34.07610276272727 0 1 0 0
246 1 0 -35.26957573625567 -32.92873874737288 0 0 0 0
332 1 0 -30.237496783871237 -33.19357041284737 0 1 0 0
668 1 0 -27.159388457940345 -33.92152810768432 0 1 0 0
283 1 0 -23.1513667571641 -32.60540415743657 0 0 0 0
503 1 0 -1.668406806982511 -33.63503624362542 0 0 1 0
231 1 0 2.5318099260438607 -33.26154238800899 0 0 0 0
154 1 0 5.599337756893669 -34.453594830193175 0 -1 0 0
777 1 0 12.015355775922947 -31.964918651968638 0 1 1 0
363 1 0 20.394803903085734 -33.68858500114638 0 -1 1 0
383 1 0 23.465076351198466 -33.37324297017553 0 -1 1 0
438 1 0 38.85395739956562 -33.71666820587399 0 1 0 0
40 1 0 44.19905234483638 -32.52698809124711 0 0 0 0
542 1 0 52.565295754388735 -34.6197021537031 0 0 0 0
426 1 0 50.38922301137439 -31.864221479460014 0 0 0 0
104 1 0 64.53643375944596 -32.32597244027398 0 0 0 0
7 1 0 70.10811391724236 -34.39400428601377 0 -1 0 0
787 1 0 75.05818558912362 -33.73541112784933 0 0 0 0
553 1 0 79.9024359447688 -33.51994970197125 0 1 1 0
89 1 0 83.16703632279602 -33.74524050059336 0 0 0 0
557 1 0 88.24902132892501 -32.73013126002338 0 0 0 0
281 1 0 92.12640812557444 -34.671146380671736 0 0 0 0
725 1 0 -48.467473626613256 -30.9813193012631 0 0 1 0
678 1 0 -44.27112846532857 -28.673872914791247 0 1 1 0
356 1 0 -38.848428367015686 -30.636832448696186 0 0 0 0
717 1 0 -29.481845740773387 -30.02828869446392 0 0 1 0
491 1 0 -19.889291629576054 -31.011619237767995 0 0 1 0
467 1 0 -16.289815390128464 -29.389172168461343 0 0 0 0
53 1 0 -13.06851899962296 -29.646093611279557 0 0 0 0
565 1 0 0.08321738217100538 -27.989099567825587 0 0 1 0
510 1 0 5.764102288804028 -31.331965229448393 0 0 0 0
201 1 0 15.193096347086 -31.358906394590072 0 0 0 0
369 1 0 16.619057257987354 -28.469422027120185 0 0 1 0
692 1 0 19.769931405796186 -30.669569768911998 0 0 1 0
533 1 0 24.984266040692656 -30.24003647049062 0 0 1 0
136 1 0 32.06428984897587 -29.0972273415212 0 -1 0 0
508 1 0 39.53462278924315 -29.681108155245244 0 0 1 0
266 1 0 67.53223945273875 -29.59676704407164 0 -1 0 0
598 1 0 71.93280210869567 -31.153133085313087 0 0 1 0
26 1 0 85.42374335570254 -29.57466554413142 0 -1 0 0
39 1 0 89.41218929049121 -28.62298697490135 0 0 0 0
684 1 0 93.88373536131559 -29.11117032178958 0 0 1 0
698 1 0 -42.24777102597852 -26.242586155567132 0 0 0 0
388 1 0 -36.21028155781547 -26.81115773714042 0 0 1 0
244 1 0 -33.909182954115316 -24.959386646563303 0 0 0 0
249 1 0 -27.962368022735223 -26.220609173320938 0 0 0 0
709 1 0 -23.667590877129005 -24.722696909819856 0 0 1 0
297 1 0 -19.31198498031927 -27.607710006567437 0 0 0 0
45 1 0 -15.771587679994468 -24.958443833339924 0 0 0 0
521 1 0 -0.11659872821518122 -24.966529074407262 0 1 0 0
98 1 0 3.969345177006998 -25.06030388441357 0 0 0 0
174 1 0 12.49331315365133 -27.477507410878573 0 0 1 0
671 1 0 21.017964147440722 -26.98933310391541 0 0 0 0
723 1 0 27.920417561840356 -26.247963827130867 0 0 1 0
484 1 0 30.801754041154904 -26.51928397383955 0 0 1 0
116 1 0 59.96900107891786 -27.18060715677648 0 0 0 0
490 1 0 74.19217572047387 -25.208364228252556 0 -1 1 0
782 1 0 80.7720131828386 -27.878122002201916 0 0 1 0
584 1 0 85.0161339094187 -25.908936407698214 0 -1 0 0
295 1 0 94.9320893466812 -26.436421435020414 0 0 0 0
407 1 0 -36.761856534983444 -23.93504036316066 0 1 0 0
195 1 0 10.88761261103832 -22.98612635482967 0 0 0 0
493 1 0 16.311875215075577 -22.819316768339093 0 0 0 0
182 1 0 21.686536904138727 -21.921216485763672 0 0 0 0
272 1 0 29.834961174409838 -23.070537661276017 0 0 0 0
361 1 0 34.753552377415616 -23.40416547093706 0 0 1 0
253 1 0 40.36349451307557 -22.567513146040007 0 -1 1 0
707 1 0 46.19386860458443 -22.779466926311322 0 0 0 0
627 1 0 51.663621568373095 -24.41765766625184 0 0 1 0
577 1 0 62.72533476724978 -24.38578082394178 0 -1 1 0
423 1 0 78.47887657508736 -23.801476689107794 0 0 1 0
795 1 0 95.31475339023517 -21.771802331302375 0 0 1 0
511 1 0 -47.808208751329076 -20.992771147916937 0 1 0 0
663 1 0 -45.80814548595734 -18.415497193108152 0 1 0 0
449 1 0 -35.66643076380699 -20.26395340814999 0 1 0 0
262 1 0 -30.76574676359087 -19.406645594983242 0 0 0 0
699 1 0 -23.238586663521986 -20.46320684635605 0 0 1 0
165 1 0 -12.694777145793152 -18.970687977434828 0 0 0 0
145 1 0 -8.278883147556726 -21.105055778323756 0 0 0 0
310 1 0 -5.30156147957799 -21.026342289538604 0 0 0 0
169 1 0 -1.953978565961155 -21.659628229084902 0 0 0 0
93 1 0 1.5827356157891987 -19.808079534840036 0 1 0 0
606 1 0 5.271264379120324 -20.43615525732383 0 0 1 0
736 1 0 9.663136605029132 -20.569291223864322 0 0 2 0
646 1 0 32.22018371262139 -20.808001793919367 0 0 1 0
413 1 0 35.92129829274533 -20.47067698309316 0 0 0 0
258 1 0 40.299787200497654 -18.900083486813433 0 0 0 0
233 1 0 47.21970856989021 -19.18929880669376 0 0 0 0
220 1 0 50.122020430684515 -19.173137289609627 0 1 0 0
203 1 0 52.73674740357385 -20.93024989162969 0 0 0 0
99 1 0 56.15393958355501 -19.838443250266117 0 0 0 0
317 1 0 72.1875773614183 -21.5850018914154 0 0 1 0
758 1 0 77.31049130301632 -18.8521061314612 0 0 1 0
321 1 0 86.5809916975564 -20.97928636072002 0 0 0 0
443 1 0 93.29163063988938 -18.867705849045013 0 0 0 0
567 1 0 -47.624398760054746 -15.07345864044464 0 0 0 0
566 1 0 -24.763646647745553 -17.82257664635517 0 0 1 0
498 1 0 -0.8142142000566865 -16.79328551207874 0 0 1 0
118 1 0 3.7221960062833896 -15.0829749932991 0 1 0 0
130 1 0 7.510094074666416 -18.22038035494799 0 0 0 0
179 1 0 9.903452292457608 -16.37873466063187 0 0 0 0
119 1 0 14.755188721214164 -17.64235928400768 0 0 0 0
683 1 0 20.182438188958876 -15.83839423343294 0 0 0 0
311 1 0 23.62808578372661 -18.160436526845416 0 0 0 0
293 1 0 26.903355552008026 -17.987279069099824 0 0 0 0
520 1 0 53.57109170866941 -16.51884101638019 0 0 1 0
200 1 0 67.87916428855227 -16.91464960370894 0 0 0 0
55 1 0 70.95629089790108 -16.34685810485573 0 0 0 0
406 1 0 80.84869100225839 -17.788274398891936 0 0 0 0
5 1 0 90.64466886570682 -15.526870807387526 0 0 0 0
305 1 0 -41.04399613222152 -14.464753654636864 0 1 0 0
400 1 0 -38.00746348467555 -12.49558917278024 0 0 0 0
645 1 0 -31.44830056572032 -14.384087432988265 0 1 1 0
483 1 0 -28.029137541801546 -13.518296215757584 0 0 0 0
616 1 0 -23.747325086306475 -12.316039435264045 0 1 1 0
448 1 0 -17.291455815286007 -13.653043069443436 0 1 0 0
230 1 0 -13.50138487990327 -12.612273191781842 0 1 0 0
85 1 0 27.59894522678669 -13.348398612558764 0 0 0 0
76 1 0 43.18924296489401 -15.11892573868972 0 0 0 0
674 1 0 47.23668781970475 -12.994769940852862 0 0 1 0
183 1 0 65.13188589183794 -11.97801917434147 0 0 0 0
632 1 0 81.74736749633138 -14.73040961891915 0 0 0 0
33 1 0 83.87552534062756 -12.695049784819258 0 0 0 0
343 1 0 87.88496482007727 -12.08052197463305 0 0 0 0
656 1 0 -48.15129591450167 -9.58636448572342 0 1 0 0
436 1 0 -43.881584680975635 -8.83154456404649 0 0 1 0
289 1 0 -34.808697050160454 -9.741447170719356 0 0 0 0
506 1 0 -28.362296638173397 -9.262857956476582 0 0 0 0
340 1 0 -18.051509617145637 -10.376852315155208 0 1 0 0
264 1 0 -8.033938483377584 -9.356319537952215 0 0 0 0
248 1 0 -3.079163519558032 -11.481358981757941 0 -1 0 0
672 1 0 0.4245509928979694 -9.926782377937931 0 1 0 0
51 1 0 6.562715175196382 -9.233397234857923 0 1 0 0
748 1 0 10.72153009826462 -10.86895537430213 0 0 1 0
387 1 0 16.242833496806636 -10.12327832463661 0 0 0 0
792 1 0 23.374720445288393 -11.453129650027535 0 1 1 0
450 1 0 33.465042443009274 -11.797097643521845 0 0 0 0
362 1 0 31.46909384565339 -9.034634773766356 0 0 0 0
451 1 0 39.74802362002665 -11.329869656249342 0 0 0 0
532 1 0 44.51431314784569 -9.192327910395148 0 0 0 0
477 1 0 47.430198193096096 -9.02990560922775 0 0 0 0
196 1 0 51.516183442418466 -11.592888891443943 0 0 0 0
241 1 0 68.89543124510716 -10.953503728578585 0 -1 0 0
428 1 0 73.32522704429806 -11.062734767714948 0 0 0 0
649 1 0 92.06914326282002 -10.362595317762166 0 0 0 0
126 1 0 -50.05205977257629 -6.18142944221001 0 1 0 0
319 1 0 -46.89098529977086 -5.882183069430765 0 1 0 0
485 1 0 -20.88243694287666 -5.6426114028724275 0 0 0 0
643 1 0 -5.362555499575212 -6.444992995342156 0 1 0 0
713 1 0 19.504015467931083 -8.112587003744927 0 0 1 0
68 1 0 21.779375043110853 -5.352458759695357 0 0 0 0
150 1 0 29.034576464565095 -6.326938814797022 0 0 0 0
494 1 0 33.714743997127556 -5.544534904419823 0 0 0 0
550 1 0 39.439002069743616 -6.457787040865715 0 0 0 0
339 1 0 55.17584321851983 -7.529224025599726 0 0 0 0
267 1 0 62.54981844504017 -7.96398654783074 0 0 0 0
16 1 0 67.56949661515814 -6.939223831253401 0 0 0 0
767 1 0 75.30102208326207 -7.242228925968331 0 0 0 0
588 1 0 81.4905268978257 -8.574917075424032 0 -1 0 0
458 1 0 85.56807264290674 -6.314762128717148 0 -1 1 0
667 1 0 -50.293015574930706 -2.2544225979997057 0 1 0 0
771 1 0 -45.21745348830536 -2.502969892424684 0 1 1 0
151 1 0 -36.787178442275774 -3.02924524130592 0 0 0 0
529 1 0 -29.463247528178798 -5.3071129496910014 0 1 0 0
171 1 0 -28.545763866930955 -2.088296474250375 0 0 0 0
43 1 0 -24.54601000325059 -4.482291190823163 0 0 0 0
41 1 0 -14.632474232274653 -3.3028462372933256 0 0 0 0
658 1 0 -1.8603037428873914 -4.499335047728963 0 1 0 0
509 1 0 1.7152680677862837 -4.0329391942658175 0 0 1 0
623 1 0 6.6955127860204655 -5.346490187801999 0 0 1 0
240 1 0 10.85386368138588 -3.9927285603557463 0 0 0 0
185 1 0 13.785624469132458 -2.25284609305596 0 0 0 0
306 1 0 16.368603099918904 -3.9405319681518227 0 0 0 0
665 1 0 26.462949134532394 -2.622321565291063 0 1 0 0
486 1 0 37.36615068007558 -3.359147961289206 0 0 1 0
781 1 0 42.61846611173952 -3.6099760625449044 0 0 0 0
36 1 0 46.02851733007446 -2.594616165555231 0 0 0 0
495 1 0 65.84556229261524 -2.951764773424503 0 0 0 0
28 1 0 71.77428981521916 -4.826869965637948 0 -1 0 0
90 1 0 78.68075424470939 -4.211226533369698 0 0 0 0
152 1 0 -40.88045067239343 -1.7829743679481587 0 0 0 0
309 1 0 -19.89497979313692 -0.4340324156451921 0 0 0 0
537 1 0 -8.666097029120293 -0.11644819404023124 0 1 0 0
191 1 0 2.4786794651905386 -0.8028378600750191 0 0 0 0
199 1 0 18.31126348069155 0.4010828412142084 0 0 0 0
42 1 0 23.34217233817629 -1.6624187686932976 0 0 0 0
444 1 0 30.585536566387603 -1.1713993035502406 0 0 0 0
164 1 0 39.75950690536196 0.7212572835495723 0 0 0 0
779 1 0 48.626989399289926 0.34672801402719916 0 1 0 0
689 1 0 53.2740246499745 -0.692377247037971 0 0 0 0
167 1 0 58.97649733797701 -0.00333678646207426 0 -1 -1 0
768 1 0 68.63336634358417 -1.116315588345298 0 0 1 0
127 1 0 72.32029773225645 -1.160756292378215 0 0 0 0
346 1 0 82.51295621846216 -1.3259606972582132 0 -1 1 0
14 1 0 85.43982285879866 -1.6812485941107067 0 -1 0 0
270 1 0 88.45825881523415 -0.3510149585296219 0 0 0 0
129 1 0 92.13227802289623 -1.516446213450027 0 0 0 0
434 1 0 -47.85833842015898 1.9229694052990876 0 1 0 0
274 1 0 -41.27454006492611 2.3730438193988443 0 0 0 0
48 1 0 -31.12923581494019 2.309437243048075 0 0 0 0
9 1 0 -19.928870181936674 3.0561987564258413 0 0 0 0
384 1 0 -14.540155657891152 2.9562363456844216 0 0 0 0
268 1 0 2.5109016928601067 3.7086988847286824 0 0 0 0
96 1 0 16.553144750614493 2.9529890271936328 0 0 0 0
751 1 0 22.42796813286259 2.2704916780585065 0 1 1 0
205 1 0 29.70517163965966 2.2176849333449247 0 0 0 0
159 1 0 33.84561418423744 2.5615012313421017 0 0 0 0
411 1 0 53.63558272921269 4.754648134914053 0 0 0 0
69 1 0 61.60272323975496 3.1821822426810735 0 0 0 0
457 1 0 73.31753790033564 2.353077820768546 0 -1 0 0
221 1 0 78.03139536436665 1.4556729939347055 0 0 0 0
111 1 0 81.15569895834152 3.179280903129777 0 0 0 0
398 1 0 85.96945136833476 1.4154570614063207 0 -1 0 0
131 1 0 91.01732024834243 3.7877541257419445 0 -1 0 0
235 1 0 -45.12540799034438 5.409715769910095 0 1 0 0
375 1 0 -41.022528943077525 6.879827694846862 0 0 0 0
194 1 0 -36.11307261999698 5.1347574875049995 0 1 0 0
189 1 0 -29.568408472889363 5.702465833768047 0 0 1 0
254 1 0 -18.529451530977852 5.831023713409313 0 0 0 0
78 1 0 -12.211693322540583 7.883641537175135 0 0 0 0
459 1 0 -7.232152461959432 6.974199571219119 0 0 0 0
298 1 0 -5.217987113594848 5.105145100714176 0 0 0 0
245 1 0 -1.0010605038853835 6.124938758497305 0 0 0 0
161 1 0 7.447112695785168 5.369108039048702 0 0 0 0
769 1 0 10.279455457898527 6.170147174569979 0 0 0 0
236 1 0 20.121514296786152 6.568908666842634 0 1 0 0
608 1 0 28.80118016929105 6.712577705303187 0 0 0 0
163 1 0 33.131778799786574 5.580081105395597 0 0 0 0
156 1 0 40.07901430010986 5.089875958827667 0 0 0 0
442 1 0 43.31821028981699 6.3559485353880865 0 0 0 0
280 1 0 48.48484220764549 7.600276309733145 0 0 0 0
685 1 0 56.02370350637347 6.647530082841178 0 1 0 0
402 1 0 65.54338510318851 7.171383458884808 0 0 -1 0
394 1 0 69.0651378479164 6.3169312094171275 0 0 0 0
222 1 0 74.99315015414349 7.74854690652228 0 0 0 0
538 1 0 77.26898048578154 5.315009003795846 0 0 0 0
342 1 0 81.7830465463891 7.5001817108317335 0 0 0 0
513 1 0 -50.10419945348187 7.805538812011101 0 0 0 0
726 1 0 -31.900588877154508 8.27692308505557 0 0 1 0
745 1 0 -26.52647667447789 10.850372567634519 0 0 0 0
541 1 0 -24.45918085758828 8.647197183897845 0 1 0 0
756 1 0 -17.47085503195677 10.965950697038256 0 0 1 0
722 1 0 -5.368626757925055 10.364068812589975 0 0 1 0
478 1 0 7.735127647392838 10.617261447681614 0 0 0 0
517 1 0 13.5494857142147 8.581688532994985 0 0 0 0
330 1 0 39.821828774538744 9.730068044889297 0 1 0 0
719 1 0 49.49985501360743 10.907794120116337 0 0 1 0
716 1 0 60.097419756087476 9.337885326296949 0 -1 1 0
579 1 0 73.14314206391099 10.324649327885417 0 -1 0 0
374 1 0 78.7926448979945 8.3749883194864 0 0 0 0
143 1 0 82.04617258151895 10.69877332861141 0 -1 0 0
137 1 0 84.98792894579567 10.23463372604598 0 -1 0 0
64 1 0 91.19183265848355 9.404715250830217 0 0 0 0
278 1 0 -48.14349939535216 12.556762653107947 0 1 0 0
365 1 0 -41.01395293543945 12.856241916050184 0 0 0 0
662 1 0 -35.26599794667537 11.38908498904621 0 0 0 0
421 1 0 -32.053315038014844 13.170647890739493 0 0 0 0
328 1 0 -22.831628723064977 13.179880503786617 0 1 0 0
226 1 0 -13.432645482128878 11.723467451932128 0 0 0 0
703 1 0 -1.8169191644204894 12.804954697555877 0 0 0 0
83 1 0 11.5218247330718 12.80147236613674 0 0 0 0
197 1 0 14.497637238600246 13.996261304712235 0 0 -1 0
135 1 0 30.844533826772732 13.538590271021999 0 0 0 0
456 1 0 32.70589812477348 11.040686356917117 0 0 0 0
380 1 0 36.86369670688721 11.818043406486343 0 0 0 0
620 1 0 34.59071038096193 13.768712670404653 0 0 0 0
429 1 0 63.25989694544022 12.595040655311243 0 0 0 0
77 1 0 70.08748044731045 11.773862097233389 0 0 -1 0
733 1 0 71.74727346175563 13.929283247403196 0 -1 0 0
629 1 0 76.93816988699396 11.244757656058294 0 0 0 0
420 1 0 80.09979083977 13.61385549707177 0 0 0 0
382 1 0 88.57756364999057 11.674490873064837 0 -1 0 0
59 1 0 -50.09480403626307 15.761532278375316 0 1 0 0
105 1 0 -45.04407876519558 15.715137809508953 0 1 -1 0
530 1 0 -28.48867570290507 14.904408963381618 0 0 1 0
681 1 0 -18.032355222874862 16.469796909797246 0 1 0 0
304 1 0 -9.048338726006357 15.20980505295409 0 0 0 0
788 1 0 -5.130861639138452 15.696641236221037 0 1 1 0
752 1 0 -2.352464223180257 15.935963553781765 0 0 1 0
597 1 0 1.4772301121621052 15.823990285321678 0 -1 0 0
492 1 0 4.700652565068896 14.671656379430718 0 0 0 0
741 1 0 19.07518628203994 17.16896016791564 0 1 0 0
519 1 0 38.59343433110459 17.461596010067364 0 0 0 0
489 1 0 49.24205338294134 14.987315879068792 0 0 0 0
481 1 0 53.71861130269568 14.991096722426827 0 0 0 0
250 1 0 62.12422841508344 16.4622572844792 0 -1 0 0
440 1 0 68.65213121882452 15.498631765922742 0 0 0 0
437 1 0 75.40300541219986 17.438333153444997 0 0 -1 0
624 1 0 83.9118375679447 16.799577072043792 0 -1 0 0
75 1 0 87.26776130962223 14.814499429016161 0 0 0 0
301 1 0 93.86122398530715 17.530363794984652 0 0 0 0
276 1 0 -47.891626105815 19.02213486769408 0 0 0 0
25 1 0 -40.533315979577395 19.7075962809186 0 -1 -1 0
178 1 0 -36.430625506656675 18.595235945029316 0 1 0 0
780 1 0 -31.759530300045093 18.021114456172622 0 1 0 0
731 1 0 -26.721057541660688 17.419200911543452 0 0 0 0
325 1 0 -10.541869577237634 20.276664325837054 0 1 0 0
333 1 0 -6.722896695801861 19.36105342592227 0 0 0 0
512 1 0 -1.0308966811083937 18.807986208479576 0 0 0 0
100 1 0 6.710745598639839 17.498233406697704 0 1 -1 0
610 1 0 22.766659848874426 18.41889121539072 0 0 1 0
612 1 0 26.908675309155843 18.607841023455812 0 0 1 0
500 1 0 36.711994468582155 20.760176236068098 0 0 0 0
61 1 0 45.17266128906103 17.489300492639423 0 0 0 0
636 1 0 52.531190472058576 19.782260446803704 0 0 0 0
749 1 0 60.07396174193587 20.158848855025745 0 0 1 0
49 1 0 63.392431178638894 20.02948176377697 0 0 0 0
269 1 0 90.02147523057054 18.719039910340573 0 -1 0 0
338 1 0 -46.63680591998148 23.082975365165236 0 1 0 0
279 1 0 -42.34884911715314 24.09000417589885 0 0 0 0
34 1 0 -20.99654906908829 21.716588692564113 0 0 0 0
242 1 0 -16.589236802688102 21.645989425421625 0 0 0 0
564 1 0 3.2011492570669318 22.35265144157723 0 0 0 0
74 1 0 8.204772938022925 21.165421620446114 0 1 0 0
219 1 0 12.717815597292162 21.2216860123274 0 1 0 0
599 1 0 17.85980702243027 22.283006942838117 0 0 0 0
578 1 0 25.882585031489604 22.332623287425598 0 0 0 0
347 1 0 39.88547296000955 23.986102331083448 0 -1 0 0
536 1 0 59.76534498346475 23.39127655981034 0 0 0 0
729 1 0 68.84855304737765 21.88910725338516 0 -1 1 0
216 1 0 84.61690511388586 22.289080394519274 0 0 0 0
46 1 0 93.60352300473924 23.38059000448775 0 -1 0 0
187 1 0 -49.405723344759416 24.22399139321292 0 1 0 0
327 1 0 -39.29222333308251 25.06486554517441 0 1 0 0
475 1 0 -35.546914740342885 24.055505485067016 0 0 0 0
322 1 0 -29.93071706048798 24.194710967323687 0 1 0 0
81 1 0 -25.899651961162494 25.1957764557781 0 1 -1 0
452 1 0 -20.115010381678374 24.896354309820442 0 0 0 0
613 1 0 -18.749592367465823 27.478342527934476 0 1 0 0
422 1 0 -13.918182584502095 27.178136997173922 0 0 0 0
677 1 0 -6.788951277873773 26.131303085990055 0 1 0 0
207 1 0 -1.8969555959669078 26.82209324290158 0 1 0 0
705 1 0 1.5290702021288358 26.65658906713511 0 -1 0 0
324 1 0 11.61179239203053 25.325564512201648 0 0 -1 0
392 1 0 19.218770938217304 25.573150444389615 0 0 0 0
522 1 0 22.947220470425513 25.548506856212562 0 0 0 0
132 1 0 30.7942042965873 24.195758664409524 0 0 0 0
480 1 0 34.34023898351594 24.233960504307777 0 0 0 0
211 1 0 47.042701261977555 24.82063615093088 0 0 -1 0
355 1 0 55.84436724939641 24.327091452531068 0 0 0 0
155 1 0 61.938504559894916 26.903810907820386 0 0 0 0
415 1 0 69.1961619027323 25.289613638343972 0 0 0 0
299 1 0 71.80939585760268 26.82691956298874 0 0 0 0
679 1 0 76.12619391627024 25.53347921416566 0 0 0 0
471 1 0 82.53194152682241 26.577471243142774 0 -1 0 0
6 1 0 87.41370968981549 24.203096489388077 0 -1 -1 0
488 1 0 90.30082164886711 25.769027640893206 0 -1 0 0
158 1 0 -36.233352564446044 29.844000892097494 0 0 0 0
575 1 0 -32.911993486079524 27.66734258982733 0 0 1 0
4 1 0 -26.481933762656485 28.937215100238216 0 0 -1 0
70 1 0 -6.377310063820052 30.013380507500464 0 0 -1 0
315 1 0 -0.3338642895489669 29.44464348530196 0 0 0 0
134 1 0 4.163793516546633 27.468097888377383 0 0 0 0
251 1 0 15.01735241463641 30.421481093421608 0 0 1 0
117 1 0 18.854819348005837 28.44356150256477 0 0 0 0
525 1 0 23.609886201013783 30.452630697827622 0 0 0 0
359 1 0 35.06927886970918 29.742761877552848 0 0 0 0
271 1 0 46.47209899915977 28.657411058621303 0 0 0 0
744 1 0 50.997224411085774 29.32469300290383 0 -1 0 0
732 1 0 67.73340588752284 29.67743281553523 0 -1 0 0
447 1 0 79.85134999904282 27.463602188410324 0 0 -1 0
396 1 0 90.52861500219183 29.308558433299034 0 0 0 0
591 1 0 -40.211032912139046 32.36575755648035 0 1 0 0
465 1 0 -30.03072087729016 32.62398479679158 0 0 0 0
590 1 0 -20.581235178984354 31.030529526407857 0 0 0 0
630 1 0 -13.183709380959607 31.27490502387204 0 0 0 0
461 1 0 -7.718118163632275 33.80675888703225 0 0 0 0
631 1 0 1.4069267397479657 32.26756886134212 0 0 0 0
284 1 0 4.730462377815138 30.75944900111634 0 0 0 0
133 1 0 7.697190078371394 31.01284833982808 0 0 0 0
82 1 0 18.750312815327227 32.060507803678036 0 0 0 0
147 1 0 26.74590823555424 31.16366613780282 0 0 0 0
587 1 0 33.115899163519366 32.7065125304197 0 0 0 0
66 1 0 39.15081632024921 31.334081057165722 0 0 0 0
427 1 0 55.28649239157226 30.788213301712258 0 0 0 0
290 1 0 72.24472356904522 30.54020566252623 0 -1 0 0
763 1 0 -44.60719491933636 34.32019330868992 0 1 0 0
430 1 0 -41.25871489882819 35.707581026053035 0 1 0 0
65 1 0 -36.58426755128223 34.54437227621882 0 1 -1 0
546 1 0 -32.4689039371334 36.02781467602708 0 1 0 0
687 1 0 -23.98532087787681 34.73295719387103 0 1 0 0
601 1 0 -17.865768210304005 36.50846702790037 0 0 0 0
259 1 0 -11.0609520371592 35.03918127345487 0 0 0 0
659 1 0 -0.5503081647429506 34.84180535797387 0 0 0 0
664 1 0 12.340633420987984 36.73030021559538 0 0 0 0
518 1 0 14.669951306204204 34.18516758058584 0 0 0 0
739 1 0 17.814024500108985 36.68542900587082 0 0 1 0
160 1 0 30.94650990700906 35.0820372656447 0 0 0 0
30 1 0 41.00231049899961 36.94016609229301 0 0 0 0
12 1 0 49.44282686347195 34.374630893750414 0 0 0 0
263 1 0 54.06446698081483 35.977825279029865 0 -1 0 0
22 1 0 71.90653042402052 35.20464320752863 0 0 0 0
762 1 0 77.46213819084976 35.80120741955986 0 0 0 0
775 1 0 83.68430666164898 35.731049929676864 0 0 0 0
794 1 0 87.22894202302341 34.01191059306916 0 0 0 0
545 1 0 90.8924061177238 35.55820998717245 0 0 0 0
793 1 0 93.97826321952283 36.38877627864646 0 0 1 0
462 1 0 -46.2064424200681 37.891075999236506 0 0 0 0
621 1 0 -40.14894991063552 38.33328575594244 0 1 0 0
633 1 0 -11.584678679630123 38.442937053634985 0 1 0 0
95 1 0 -0.8612253727142134 39.758931024023276 0 1 -1 0
18 1 0 19.98552634190514 39.704165761388595 0 0 0 0
224 1 0 46.209992144147066 39.29486892767887 0 0 0 0
609 1 0 49.86502268893546 38.2079561224982 0 0 0 0
52 1 0 62.39733870711708 37.801585936420246 0 0 0 0
405 1 0 71.28887472411053 39.222394942488 0 0 0 0
349 1 0 79.21660594775311 38.67398811265923 0 -1 0 0
401 1 0 86.37846507585137 38.566470041331776 0 0 0 0
385 1 0 95.00034771122566 40.16273548845527 0 -1 0 0
265 1 0 -41.264882307011554 42.42813436234584 0 0 0 0
479 1 0 -33.67774548784761 41.02643094224474 0 0 0 0
770 1 0 -28.695821953768817 42.74509060656741 0 1 0 0
215 1 0 -26.51091055235025 40.844375438408235 0 1 0 0
551 1 0 -19.697165893277496 40.69072988636949 0 1 1 0
113 1 0 -15.902447824942717 42.086415833399265 0 1 -1 0
635 1 0 -9.661480473650185 41.91334307573247 0 0 0 0
548 1 0 3.3934392228073227 40.581844862962775 0 0 0 0
594 1 0 6.587619848101968 43.736711164554386 0 0 0 0
628 1 0 8.223366596242169 40.41114982829537 0 0 0 0
735 1 0 15.408378027374564 41.3812966686324 0 0 0 0
202 1 0 23.11523719131948 40.72904890359606 0 0 0 0
57 1 0 28.03669827374118 42.9430212684538 0 0 -1 0
358 1 0 33.84030333653222 41.14892406488951 0 -1 0 0
60 1 0 36.39924465260211 43.1752651233153 0 0 -1 0
84 1 0 39.70354045606203 43.53803005578325 0 0 -1 0
285 1 0 42.770396075833254 41.53951156074355 0 1 0 0
286 1 0 50.64211390953406 41.813520098767164 0 0 0 0
409 1 0 62.14113851958561 42.0160849246858 0 0 0 0
217 1 0 67.70616339544738 41.853262006334056 0 0 -1 0
502 1 0 74.7438840468675 42.2464755407911 0 0 0 0
379 1 0 83.00691821371376 43.8309206186199 0 -1 0 0
695 1 0 86.65179454341514 43.366027229801865 0 -1 0 0
686 1 0 -45.1550004229991 43.928141880881235 0 1 0 0
19 1 0 -36.99215622131496 44.534082056186094 0 0 -1 0
690 1 0 -32.96368912164687 44.91671839795207 0 0 0 0
148 1 0 -28.24931748478451 46.66096451397045 0 -1 -1 0
44 1 0 -22.571285834410418 46.501645988113616 0 0 0 0
368 1 0 -18.638205229922942 45.21957973354811 0 0 0 0
237 1 0 -13.976356411830162 45.89712811665465 0 0 0 0
737 1 0 -9.364051435576023 46.573364348871436 0 0 0 0
589 1 0 -2.486676791566443 43.90610685158172 0 0 0 0
527 1 0 14.215198661844441 44.87304728791027 0 0 0 0
412 1 0 18.073859220269565 46.929977965280926 0 0 0 0
569 1 0 43.09608330762747 45.902986327155816 0 0 0 0
535 1 0 55.63925502955484 44.33552477758274 0 0 0 0
570 1 0 65.07380044999216 44.13468884100573 0 -1 0 0
47 1 0 68.61750656637155 45.42079413154432 0 0 -1 0
261 1 0 72.12135347565186 45.212945682155826 0 -1 0 0
464 1 0 86.6818515180693 46.74552622152451 0 -1 0 0
572 1 0 -44.0623510269544 47.96742870115855 0 0 0 0
693 1 0 -29.299588077400124 49.53164982886793 0 0 0 0
790 1 0 -15.854306670894067 49.63429160142176 0 1 -1 0
473 1 0 -4.120693964851202 47.689754838357345 0 0 0 0
107 1 0 2.389038021057725 47.2694589683442 0 1 -1 0
318 1 0 4.982156467529895 48.56292729654122 0 0 -1 0
35 1 0 10.138724281565626 48.70764755768633 0 0 0 0
568 1 0 19.352110816335568 49.98014327736501 0 0 0 0
1 1 0 25.761164018869685 48.263007269164895 0 -1 -1 0
389 1 0 30.139070520978343 46.930412404913994 0 0 0 0
227 1 0 35.84817883960754 48.915466942813026 0 0 -1 0
654 1 0 41.72875241226593 49.39974323707591 0 0 0 0
766 1 0 52.90531201913501 48.01442831312755 0 0 0 0
370 1 0 56.220490939027606 49.77900770456725 0 0 0 0
404 1 0 62.2620738758628 49.66053473923754 0 0 0 0
718 1 0 64.78474413742897 48.48687616710663 0 0 1 0
337 1 0 69.80186915291813 49.259196132460964 0 0 -1 0
170 1 0 75.13398549617764 49.693420019654994 0 -1 0 0
110 1 0 78.0449365570801 47.70227870756953 0 0 -1 0
670 1 0 83.7063839503928 48.25334892365664 0 0 0 0
376 1 0 90.60634113512639 50.13498412061492 0 -1 0 0
531 1 0 -43.05959642688832 51.27700327571554 0 1 0 0
352 1 0 -35.50884096209925 51.82710076853854 0 0 0 0
516 1 0 -30.6387017662248 52.35331073618182 0 0 0 0
505 1 0 -17.589132684123648 52.63521960673864 0 0 -1 0
648 1 0 -11.288725091069313 51.15195024455306 0 0 0 0
32 1 0 -3.5174307298128387 51.365078143111006 0 0 0 0
371 1 0 12.513753659488696 51.707163832274496 0 0 0 0
697 1 0 17.17667691487035 52.933451574404565 0 0 0 0
140 1 0 23.617889569260996 51.24497458622726 0 -1 -1 0
552 1 0 27.44748863677905 51.402636335536265 0 0 0 0