LAMMPS data file via write_data, version 14 Dec 2021, timestep = 400100

795 atoms
1 atom types

-51 96 xlo xhi
-51 96 ylo yhi
-51 51 zlo zhi

Masses

1 12.0107

Pair Coeffs # lj/cut

1 0.066047 3.4

Atoms # charge

133 1 0 -38.98659777155631 -49.910584297117644 0 0 0 0
473 1 0 -34.34821712540435 -48.42037531662813 0 0 1 0
67 1 0 -21.177335631606596 -50.64343721462853 0 0 0 0
491 1 0 -14.53563783763789 -48.94058122676883 0 0 1 0
699 1 0 -7.401344793503242 -48.98532043703354 0 0 1 0
226 1 0 -4.319686488416693 -49.0641829134011 0 1 1 0
620 1 0 5.953882506805562 -48.668008959380245 0 -1 1 0
115 1 0 17.090755576151984 -50.28406959961883 0 1 0 0
134 1 0 21.09604511629089 -50.50945461095357 0 0 0 0
100 1 0 25.78452319062179 -50.57770486520872 0 1 0 0
640 1 0 42.050296652843876 -47.4502447552762 0 0 0 0
527 1 0 48.19072444279852 -48.97708779354357 0 0 2 0
463 1 0 52.64349398024303 -50.312364296665095 0 -1 1 0
400 1 0 83.09288340176404 -47.838579015649216 0 0 1 0
18 1 0 -49.51124389496633 -44.72927609939798 0 0 0 0
225 1 0 -47.55518598796719 -46.63741282082236 0 1 0 0
590 1 0 -44.94839799326641 -45.70970290244689 0 0 1 0
26 1 0 -41.90933302338643 -47.52486196434056 0 1 -1 0
560 1 0 -37.29914954220879 -45.30941233833986 0 0 0 0
245 1 0 -31.997268959177035 -47.070267072415156 0 0 0 0
538 1 0 -18.885885426150033 -44.54736592432345 0 1 0 0
150 1 0 -12.834473848562688 -45.489273486246844 0 1 -1 0
231 1 0 1.8799011525633207 -45.13120317776741 0 1 0 0
237 1 0 28.247898837754956 -45.73035611952599 0 0 0 0
476 1 0 46.11478046116395 -46.54467343898033 0 0 1 0
469 1 0 50.4960461286742 -45.61968190524688 0 -1 0 0
327 1 0 56.76014677160017 -47.50602599446508 0 0 0 0
230 1 0 66.00460909667072 -46.0064126854743 0 0 0 0
401 1 0 80.53988776956582 -45.08197715598654 0 -1 0 0
305 1 0 86.41081842080729 -45.62377611072897 0 -1 0 0
304 1 0 90.29583352930592 -46.38749723700224 0 0 0 0
86 1 0 95.58955170803254 -47.01138228143542 0 0 1 0
566 1 0 -32.680395007302444 -41.56169063208442 0 0 0 0
22 1 0 -22.51157846748889 -42.93430749098381 0 0 0 0
159 1 0 -15.719983561978593 -42.861462890736206 0 0 0 0
39 1 0 -12.381844309255788 -42.10899499634634 0 -1 0 0
294 1 0 -2.0733567293511355 -43.6860985077521 0 0 1 0
719 1 0 4.954865234174998 -43.893919508686245 0 0 1 0
170 1 0 12.141930554236053 -42.45200906530686 0 0 1 0
178 1 0 25.627183434911895 -43.78649156946309 0 0 0 0
68 1 0 29.27309010699834 -41.93167557096951 0 -1 0 0
167 1 0 48.53684037007516 -42.67488395581884 0 0 1 0
671 1 0 57.48193478634733 -42.13173957522579 0 0 0 0
748 1 0 65.22165209415743 -42.779748390412315 0 0 1 0
574 1 0 73.94646062477628 -43.222312683780714 0 0 1 0
588 1 0 83.17766822329833 -42.96462369926137 0 -1 1 0
386 1 0 -46.79795035648104 -40.226502372998716 0 0 0 0
495 1 0 -35.731494313406365 -41.007226220607706 0 0 1 0
21 1 0 -27.568974479369565 -38.86582197038103 0 0 0 0
600 1 0 -18.015413271901103 -40.9205541570002 0 0 1 0
577 1 0 -14.1432731591329 -38.460675563858125 0 -1 1 0
222 1 0 -10.451644273347357 -39.37391896744455 0 0 0 0
381 1 0 -7.213321319168279 -40.91245377294454 0 0 1 0
78 1 0 3.1482649778626253 -40.98010980498635 0 1 0 0
165 1 0 5.748518620277424 -38.47325379034642 0 0 0 0
460 1 0 22.074539741261955 -38.006378978480356 0 0 0 0
122 1 0 36.44795876987545 -38.24110174103693 0 1 0 0
745 1 0 45.775831357470466 -40.465647563896944 0 0 1 0
310 1 0 57.063933679530194 -38.11323119224922 0 0 0 0
576 1 0 60.99577982642166 -40.17889716661912 0 -1 0 0
687 1 0 75.33590784324103 -38.28804995845683 0 0 1 0
435 1 0 78.3440929476893 -40.61499830123957 0 0 1 0
426 1 0 -38.37815007369471 -36.03519059022611 0 0 1 0
36 1 0 -34.39358018445902 -34.391718511310664 0 0 -1 0
60 1 0 -20.48604103781321 -35.772556292211384 0 0 0 0
163 1 0 -7.0947926372959635 -37.50044123747413 0 1 0 0
784 1 0 2.7771202373985746 -36.67813825237381 0 1 1 0
533 1 0 9.016055094722653 -36.816661631479036 0 0 0 0
306 1 0 14.91215254308371 -37.951732185280854 0 0 1 0
455 1 0 17.239157245602335 -34.90466606480597 0 -1 0 0
43 1 0 39.23971105025415 -36.0843475977355 0 0 -1 0
739 1 0 45.536344795007174 -37.15849394849034 0 0 1 0
45 1 0 48.87838526787306 -36.299194370890824 0 0 0 0
267 1 0 53.85388570576471 -36.86783286301826 0 -1 0 0
692 1 0 63.91421305610204 -37.18013887201503 0 -2 1 0
192 1 0 70.23436854872675 -36.335750645499836 0 0 0 0
750 1 0 84.82016995254749 -38.21243515144997 0 -1 1 0
114 1 0 -41.50859579813851 -32.71870028460098 0 1 0 0
309 1 0 -31.02553211770136 -34.2927546313559 0 1 0 0
261 1 0 -22.95490575648457 -32.65216329961538 0 0 0 0
260 1 0 -5.931649316671825 -31.880799544823176 0 1 0 0
485 1 0 11.657657292354296 -34.33234246113694 0 0 0 0
358 1 0 20.82369333256706 -34.35850298696479 0 0 1 0
65 1 0 18.175184220471895 -32.49510379465111 0 0 0 0
208 1 0 32.79764511044148 -33.084099989919096 0 1 0 0
587 1 0 60.095829651200326 -34.722710688192514 0 0 0 0
118 1 0 67.78787079834906 -32.553331894382914 0 0 0 0
119 1 0 79.48677861674562 -34.129009086358074 0 0 0 0
318 1 0 89.60761307483628 -33.844573591786215 0 -1 0 0
71 1 0 -48.07144485341392 -31.03784292994743 0 1 0 0
670 1 0 -31.305569950897965 -31.04659061742766 0 1 1 0
64 1 0 -25.308372401778215 -28.25580846021705 0 0 0 0
429 1 0 -14.76552610376954 -28.391881059958436 0 1 1 0
480 1 0 0.3753159973233045 -30.111438306072206 0 0 1 0
50 1 0 13.932561435357128 -29.45271658512959 0 0 0 0
13 1 0 25.09110972621017 -30.174307223823234 0 -1 0 0
199 1 0 28.37478744379577 -30.282632123592958 0 0 0 0
378 1 0 35.842719405796295 -31.025735649186124 0 0 0 0
194 1 0 47.17351060265673 -28.62687261356112 0 1 0 0
146 1 0 58.485326834625155 -30.850943715119147 0 -1 0 0
213 1 0 62.81610384761985 -30.332677666563768 0 0 0 0
733 1 0 66.12017023871856 -29.16883140962455 0 0 1 0
239 1 0 73.71503476742609 -29.996995872247563 0 -1 0 0
371 1 0 76.52795398102216 -30.5048399654094 0 -1 0 0
55 1 0 81.74189646942126 -29.44343635670892 0 -1 0 0
57 1 0 88.18356423420086 -30.017023326718814 0 -1 -1 0
70 1 0 94.89511818315057 -30.69320273212984 0 0 1 0
83 1 0 -49.87926001517618 -26.719661914386975 0 1 0 0
328 1 0 -44.833486669741475 -27.66206972996569 0 1 0 0
475 1 0 -40.933394131322935 -27.563283085868047 0 1 0 0
124 1 0 -37.61313519817728 -26.37848212869486 0 1 0 0
218 1 0 -32.260720448333466 -26.00878118036495 0 2 0 0
537 1 0 -26.49440853674786 -25.470420323978132 0 0 0 0
317 1 0 -19.217814251632188 -27.609039384481154 0 0 0 0
628 1 0 -8.419228050056804 -27.06645343722481 0 0 1 0
720 1 0 -0.470212834777006 -25.127253400306895 0 0 1 0
646 1 0 6.062192100524551 -26.686385667271665 0 0 1 0
153 1 0 11.893502220524972 -27.120421172096766 0 0 0 0
585 1 0 22.704178015914362 -27.02860924075425 0 0 1 0
420 1 0 25.40420265127525 -27.187812365638035 0 0 1 0
721 1 0 28.704745447623985 -25.47192634555387 0 0 2 0
430 1 0 36.85604151930362 -28.286243571094097 0 1 0 0
697 1 0 62.7636831761687 -26.120414388796643 0 -1 1 0
155 1 0 91.73864679446623 -27.983782738135712 0 -1 -1 0
437 1 0 94.60264373177986 -24.837128161835142 0 0 1 0
416 1 0 -15.542938161108928 -24.7936963515583 0 1 1 0
691 1 0 -4.286211334901283 -23.032878317561543 0 -1 0 0
402 1 0 3.1703177973176238 -24.891989941739144 0 0 0 0
793 1 0 4.3764258739743935 -21.647366161134848 0 1 1 0
25 1 0 17.4082686380277 -22.122972032059252 0 0 0 0
758 1 0 39.361631429293425 -24.819838479836225 0 0 0 0
735 1 0 37.1660252793291 -22.801316316089956 0 0 1 0
323 1 0 41.97684559432449 -21.89868109365714 0 1 0 0
74 1 0 47.76312530022141 -22.87707062136317 0 0 -1 0
516 1 0 50.39254883567987 -23.731904379852605 0 0 0 0
210 1 0 52.721854366955505 -22.087161393434734 0 0 1 0
221 1 0 55.82279503272315 -24.11199934435145 0 0 0 0
546 1 0 62.211000826586684 -22.40015823391834 0 0 0 0
639 1 0 70.46338736932604 -24.649970895082188 0 -1 1 0
716 1 0 80.25879511200135 -24.79434711654334 0 -1 0 0
265 1 0 -50.03091352010927 -21.814560035814946 0 1 0 0
211 1 0 -34.44768839405985 -20.381887650835587 0 1 0 0
685 1 0 -30.650725548942937 -19.653461626712566 0 2 0 0
586 1 0 -25.832199072213104 -20.601814658395966 0 1 0 0
482 1 0 -22.047276189961448 -20.197830616330744 0 0 1 0
507 1 0 -11.266791961973347 -19.511099577086206 0 0 1 0
731 1 0 -0.7056520212149465 -19.637622827426586 0 1 0 0
228 1 0 13.429114646152227 -21.864051670567168 0 1 0 0
82 1 0 16.634335835257318 -19.16201395170293 0 0 1 0
89 1 0 21.09033186189959 -18.89359076951253 0 0 0 0
522 1 0 28.851317500270156 -21.114096715440485 0 -1 1 0
154 1 0 35.397165652584995 -19.437292753333768 0 0 0 0
427 1 0 41.75474570621799 -18.290049362674136 0 0 0 0
234 1 0 57.92277706491984 -20.78103135661982 0 0 0 0
781 1 0 84.93108204056516 -21.859414445406138 0 0 1 0
223 1 0 89.22830833668527 -20.05150099039271 0 0 1 0
557 1 0 92.12024587011494 -21.05844351826043 0 0 0 0
289 1 0 -41.92888464612357 -17.907636214628628 0 1 1 0
196 1 0 -32.644056822592034 -17.62073721206733 0 1 0 0
439 1 0 -24.145718392189806 -16.843163782687558 0 1 0 0
761 1 0 6.028239670249583 -16.94989179712497 0 1 1 0
396 1 0 12.84351104927414 -18.292550248571438 0 0 0 0
379 1 0 18.759727396321033 -15.930824134738037 0 0 0 0
316 1 0 33.89604969959703 -17.406223811352596 0 0 0 0
736 1 0 51.586066652407794 -15.613700532950526 0 0 1 0
280 1 0 62.90379676551573 -15.735569345001252 0 0 0 0
705 1 0 65.18215300055714 -17.56865261259844 0 0 0 0
108 1 0 72.07625546182085 -18.094290030265594 0 1 0 0
241 1 0 71.91858976876925 -15.351381057314342 0 0 0 0
283 1 0 79.63937096657996 -18.229559891540767 0 -1 -1 0
552 1 0 85.75958108248285 -18.350323776630677 0 0 0 0
101 1 0 88.25552853492974 -15.266173975893098 0 0 1 0
711 1 0 91.96520515923353 -16.42113561219071 0 -1 0 0
370 1 0 -48.32045415990121 -12.2043690409082 0 0 1 0
40 1 0 -45.27275597088857 -12.227479044626957 0 1 1 0
244 1 0 -38.09103157713863 -13.936673085614167 0 1 0 0
164 1 0 -22.43478439929771 -12.422488049340975 0 0 1 0
421 1 0 -18.778403575478094 -12.707995476290154 0 1 0 0
111 1 0 -9.918500204110611 -12.323219662444876 0 1 0 0
627 1 0 9.38964372695613 -11.998046016110436 0 0 0 0
274 1 0 15.606659882786872 -13.129697195368456 0 0 0 0
568 1 0 19.35294619345618 -12.302200124340423 0 -1 0 0
130 1 0 22.456768311187272 -13.875055640464149 0 0 0 0
449 1 0 54.37387493544227 -14.268251654535431 0 1 1 0
127 1 0 58.467862518853934 -13.725541538361137 0 0 0 0
706 1 0 62.02133101111075 -13.111165560907997 0 0 1 0
171 1 0 71.51481698172331 -12.91179570774208 0 0 0 0
297 1 0 84.06764939926519 -14.968123065140965 0 0 0 0
742 1 0 92.74039638744635 -12.791701846355862 0 0 1 0
253 1 0 -48.16606941862594 -8.650326283880755 0 0 0 0
188 1 0 -44.70535369174592 -9.818408168508771 0 1 0 0
572 1 0 -42.179832502561354 -11.403927091903425 0 0 1 0
276 1 0 -39.90092735069585 -8.33890816168728 0 0 0 0
250 1 0 -36.30410574328561 -9.845409631795288 0 0 0 0
595 1 0 -33.12603309618382 -9.275104579890082 0 0 0 0
90 1 0 -7.684799648108528 -10.632058059277 0 0 -1 0
320 1 0 21.56065642823528 -9.93287263700304 0 1 0 0
69 1 0 26.898135118352236 -9.06207795582337 0 0 -1 0
764 1 0 44.51903814479443 -10.72943922876409 0 0 1 0
647 1 0 49.01910940240635 -11.06867718130058 0 0 0 0
562 1 0 54.34365839307907 -9.711949574638723 0 0 0 0
622 1 0 68.45941753676138 -9.21537049081547 0 -1 0 0
682 1 0 86.84367581624288 -11.663889598479704 0 0 0 0
31 1 0 91.51651044761154 -8.537341696772323 0 -1 0 0
30 1 0 94.61185844057086 -10.987500996021879 0 -1 -1 0
123 1 0 -45.360216428421516 -5.4582002521704025 0 1 0 0
612 1 0 -37.42496485301866 -6.171291922555814 0 1 0 0
212 1 0 -29.778440454278673 -5.844442690136251 0 1 0 0
137 1 0 -17.211840178013887 -8.543420848459462 0 0 0 0
1 1 0 -9.3903859417374 -7.297179298051944 0 0 -1 0
755 1 0 -4.496784946421367 -6.707030756734079 0 1 1 0
95 1 0 -1.1177175221155309 -7.64015595991513 0 1 0 0
49 1 0 12.390184256549908 -6.778967856981307 0 0 1 0
710 1 0 15.410650988597972 -7.455565338402165 0 -1 1 0
483 1 0 19.02615301077024 -7.193739138076218 0 1 0 0
257 1 0 30.430398370961477 -7.5814359185793165 0 1 0 0
319 1 0 33.520275237601915 -7.21045808743879 0 0 0 0
198 1 0 39.5274292663874 -7.14663536372594 0 0 -1 0
353 1 0 49.52288733112441 -6.301562533474607 0 -1 0 0
340 1 0 64.65017467214693 -5.521461354775861 0 0 1 0
530 1 0 73.38280349722993 -6.2835481302154665 0 0 1 0
180 1 0 85.47735483298416 -8.073732618289341 0 -1 -1 0
105 1 0 85.19284803561766 -5.50463907329441 0 0 0 0
517 1 0 -48.938875723852064 -2.734829872044174 0 0 0 0
81 1 0 -40.92614350514106 -4.286638983322376 0 2 0 0
789 1 0 -35.116506500585984 -4.141463340957098 0 1 0 0
486 1 0 -37.391652785324936 -2.0264505827932813 0 1 0 0
754 1 0 -26.986911102354256 -4.1083224870160295 0 1 1 0
337 1 0 -16.38464204644003 -2.11602483422266 0 0 0 0
519 1 0 -8.235360837298627 -4.065227454250499 0 1 1 0
694 1 0 -4.7483975784830905 -3.3875986516973535 0 0 0 0
532 1 0 -1.8231278675782656 -3.211662524636328 0 0 1 0
197 1 0 9.830017142571583 -2.7804008480085822 0 -1 0 0
63 1 0 19.94682526027995 -4.453516238343584 0 1 0 0
734 1 0 24.637116629273574 -2.3310607351808246 0 -1 1 0
407 1 0 28.041646521454236 -2.7068083156612537 0 0 0 0
61 1 0 34.95101535292092 -4.717412692410954 0 0 0 0
125 1 0 44.08517605547088 -3.236112923888692 0 0 0 0
791 1 0 53.171129376646256 -4.265124948838737 0 0 0 0
782 1 0 55.907575057063376 -4.9222983985305815 0 0 1 0
303 1 0 69.12111508509706 -3.8847168853833844 0 0 0 0
768 1 0 77.45876247550643 -3.018210095708017 0 0 1 0
693 1 0 95.57633308485778 -5.11579554261603 0 -1 0 0
567 1 0 93.37642511844092 -2.756226441149838 0 -1 1 0
616 1 0 -32.70366647632959 -0.9833189619413765 0 1 0 0
535 1 0 -27.795824783615767 -0.5102541972712147 0 1 1 0
110 1 0 -21.222802365574495 -1.0869018915364934 0 1 0 0
204 1 0 4.8159881456537486 0.9635488289961152 0 0 0 0
635 1 0 17.009309815703734 -0.18189443460638158 0 0 0 0
656 1 0 33.05728106444606 -2.0217858556963577 0 0 1 0
618 1 0 45.34860363623824 0.4652255266021225 0 -2 0 0
626 1 0 54.80792923994364 -0.17579447743786183 0 0 0 0
661 1 0 61.05870687965345 0.10714065612823602 0 -1 1 0
548 1 0 64.28561621972473 -0.49583057733705027 0 0 1 0
158 1 0 72.32156896754147 -0.2548034668294234 0 -1 0 0
252 1 0 80.39284447735768 -2.0446037829921413 0 -1 0 0
4 1 0 84.23433419874452 -1.8834352505947334 0 -1 0 0
24 1 0 86.76532387670481 0.6909296537042829 0 -1 0 0
547 1 0 -47.50287141536945 3.096623076295541 0 1 2 0
780 1 0 -40.77995426887825 2.0044740428332664 0 1 1 0
666 1 0 -29.554930499100784 2.4742137961938857 0 1 0 0
700 1 0 -23.155078220481656 2.530930928101903 0 0 0 0
47 1 0 -18.673522533024045 4.5868280529295555 0 0 0 0
726 1 0 -10.109390954383224 1.1266768554782154 0 0 0 0
185 1 0 -6.759372865399957 2.567934780632829 0 0 -1 0
151 1 0 2.113804507641518 3.069782947231535 0 1 -1 0
140 1 0 18.392257388491576 2.9995946626599075 0 0 -1 0
315 1 0 29.20723030395938 4.3685939709468204 0 1 0 0
346 1 0 32.05421742702529 1.436690372726761 0 0 0 0
42 1 0 32.42179437487667 4.6466558582993684 0 0 0 0
645 1 0 35.93464529459744 3.4056428161814836 0 0 1 0
308 1 0 39.29545819275006 2.1248976046339583 0 0 0 0
233 1 0 47.684049763759894 3.3586631179783946 0 0 0 0
461 1 0 53.97069714758112 3.327933411470126 0 0 0 0
617 1 0 72.10406819266707 3.3199271563282444 0 -1 0 0
657 1 0 76.23231307501993 2.6280716841315295 0 0 0 0
642 1 0 80.5596312537298 1.6091279870500172 0 0 1 0
258 1 0 84.13489523907627 2.9886173790238697 0 -1 0 0
314 1 0 90.49704744740335 3.168060516222029 0 1 0 0
186 1 0 -46.43257112525551 5.999741241132122 0 1 0 0
224 1 0 -40.967640004138296 6.881890368128512 0 1 -1 0
339 1 0 -35.729473968525255 7.445681489881457 0 1 0 0
238 1 0 -30.338259535693908 6.451311098702714 0 0 0 0
29 1 0 -23.792453570400095 5.931799097240322 0 0 -1 0
644 1 0 -17.725190247952632 7.443900480179941 0 1 0 0
730 1 0 -13.88876846769127 5.954745320369905 0 0 0 0
433 1 0 4.023252569627445 7.09281367814725 0 1 0 0
769 1 0 10.664050320955274 5.677997966463391 0 1 0 0
578 1 0 26.535122250195553 5.9117811178503965 0 0 0 0
301 1 0 30.61819494800401 7.376419601029525 0 0 0 0
397 1 0 40.47106173041592 5.581627979674498 0 -1 1 0
573 1 0 45.00400169849119 4.801078617194897 0 0 0 0
549 1 0 48.73383215943104 7.715210292754125 0 0 0 0
651 1 0 63.096609998213516 6.980155784674488 0 0 0 0
59 1 0 74.42177848826655 6.056630143965924 0 0 0 0
563 1 0 80.0617145743541 5.013103987778348 0 0 0 0
659 1 0 88.20088020507272 4.960886270710715 0 0 0 0
602 1 0 -49.74757135444751 7.727329265274833 0 0 1 0
200 1 0 -46.39226749450958 10.623744662057328 0 0 0 0
468 1 0 1.3348723303656584 10.448886361397827 0 -1 1 0
220 1 0 10.90279216070396 10.21322427097734 0 0 -1 0
591 1 0 16.816079776565896 9.923666923357676 0 -1 0 0
759 1 0 21.343209274349213 9.42408458668003 0 0 1 0
403 1 0 38.047983267565456 8.524697564888811 0 0 0 0
255 1 0 41.17229528663822 9.643524424821523 0 0 0 0
266 1 0 57.28260072762433 10.070343849945907 0 1 0 0
728 1 0 65.76586761403273 10.304240012181895 0 0 0 0
521 1 0 71.48792812294283 9.92625552210948 0 0 0 0
330 1 0 76.63350744986599 10.368336544660371 0 1 0 0
510 1 0 -45.74896423199818 13.195818451283035 0 1 0 0
352 1 0 -40.75365074174513 12.006848240416964 0 0 0 0
624 1 0 -37.85781755764333 11.674104407527668 0 0 0 0
351 1 0 -30.170091634976483 13.14443956648686 0 0 0 0
412 1 0 -13.23979471710964 11.094429364487961 0 1 1 0
256 1 0 -9.337157455718886 13.675684652515214 0 0 0 0
242 1 0 -5.363132175566228 12.517741375086057 0 1 0 0
169 1 0 -3.174719735570154 14.002501836051943 0 -1 0 0
177 1 0 -0.3195201463871327 13.346065891676943 0 -1 -1 0
84 1 0 4.851067009195714 12.937662241896856 0 0 -1 0
472 1 0 15.890616714506566 13.79786636695204 0 -1 0 0
285 1 0 18.929080101997947 12.26559832894137 0 0 0 0
160 1 0 26.048459857503342 12.115692979073701 0 0 0 0
333 1 0 33.75140533351605 12.851032374234457 0 1 0 0
783 1 0 40.118894753809144 12.031131258011609 0 0 1 0
518 1 0 46.36206796600608 12.153371244177146 0 0 1 0
259 1 0 66.50713137005445 13.2352544492802 0 -1 -1 0
553 1 0 71.71682015520793 14.478487096123677 0 0 1 0
398 1 0 75.3143736162973 12.621611283149372 0 0 0 0
11 1 0 79.54259546651305 11.202958487373138 0 0 0 0
454 1 0 82.54784039866912 13.494982646819711 0 0 0 0
219 1 0 85.91869363912623 11.84061875217927 0 1 0 0
470 1 0 93.14867558006087 12.254498911379933 0 -2 0 0
709 1 0 -47.98166483435195 16.581588196846607 0 1 0 0
312 1 0 -29.51454181933221 16.00736739243124 0 0 0 0
91 1 0 -2.744622772785123 17.12843840513067 0 0 0 0
263 1 0 11.57768094239965 15.968253508355897 0 -1 0 0
144 1 0 14.007928131564015 16.99547923537396 0 0 0 0
143 1 0 16.85963171683517 17.600485213152034 0 0 0 0
408 1 0 21.05002197394793 16.409731443109916 0 0 0 0
774 1 0 30.663273057153187 14.477454739088174 0 0 1 0
542 1 0 35.91131109909132 15.80026948603051 0 0 1 0
332 1 0 44.48998732963886 15.847692911914336 0 1 0 0
631 1 0 54.14639332515538 14.64388146988823 0 0 1 0
189 1 0 57.52012393376958 17.284753890970734 0 0 0 0
534 1 0 62.976746269234475 14.941433778139718 0 0 0 0
359 1 0 65.00565085593334 17.045178949559205 0 -1 1 0
174 1 0 84.72722412938708 17.139795592073686 0 0 -1 0
662 1 0 -46.986672731653066 19.558670744650602 0 1 1 0
502 1 0 -39.931616436052316 17.99753580876911 0 0 0 0
279 1 0 -27.595826811740167 18.160060595054446 0 0 -1 0
229 1 0 -20.71073752222585 18.96895172278116 0 2 0 0
369 1 0 -12.56724965829151 19.861273279022658 0 0 0 0
766 1 0 -5.638397350770395 20.242109949668297 0 0 1 0
227 1 0 -2.6905716259848904 20.07619867553753 0 0 0 0
73 1 0 3.7939609050864593 18.171653082402425 0 0 0 0
76 1 0 1.240111625625753 19.5584118718678 0 -1 0 0
296 1 0 15.663939872770994 20.558934149869213 0 0 -1 0
93 1 0 23.744021267901957 17.789706743059348 0 1 -1 0
465 1 0 38.66138278117996 19.727755513542036 0 -1 0 0
126 1 0 51.99987323835588 20.06421530511454 0 0 0 0
360 1 0 60.25772472091363 18.990485812363108 0 0 0 0
179 1 0 72.70260353141711 19.862855951776066 0 -1 0 0
515 1 0 81.03136987393312 19.978375976263937 0 0 0 0
609 1 0 -39.67798734163392 21.146925530375395 0 1 1 0
374 1 0 -25.372705452922627 21.823481393708093 0 0 0 0
506 1 0 -15.162545564362022 21.453939234724754 0 0 0 0
712 1 0 -11.662159080543415 24.081417491600632 0 0 1 0
117 1 0 8.086612086854265 21.66441784085449 0 0 -1 0
619 1 0 11.672815552129885 22.363294541928532 0 0 0 0
440 1 0 27.146273556422965 21.69907491617103 0 0 0 0
492 1 0 38.96062863412506 22.816560106411064 0 0 0 0
655 1 0 44.04099613764469 20.743705771682926 0 0 0 0
669 1 0 49.196870678650214 21.964167637045293 0 0 0 0
52 1 0 55.29274177989288 21.38637504766131 0 -1 0 0
271 1 0 59.46702488629142 22.061544647384775 0 -1 0 0
58 1 0 63.774160238147786 24.171989359006428 0 -1 0 0
704 1 0 75.89935517704211 23.2004805495182 0 -1 0 0
714 1 0 78.07299430488052 21.159971497185325 0 -1 1 0
424 1 0 81.5125682727469 22.74899193147155 0 0 0 0
570 1 0 85.84803125674895 21.454088643517274 0 0 0 0
477 1 0 89.42021531829722 21.276727857322477 0 -1 0 0
442 1 0 92.61367048606691 23.164566409092494 0 0 0 0
794 1 0 94.49422888006059 20.951118067210103 0 0 0 0
87 1 0 -43.31860991557382 26.120987597949465 0 1 0 0
696 1 0 -38.203180782124534 24.9023266338469 0 0 1 0
411 1 0 -33.02187027680594 26.10847888638429 0 1 0 0
652 1 0 -27.576554832132775 24.150087002964327 0 0 0 0
632 1 0 -21.537202467841606 26.32617541416404 0 1 0 0
243 1 0 -23.791351199477948 24.351736197103104 0 0 -1 0
395 1 0 -17.568988463605866 25.770101209514344 0 0 0 0
390 1 0 -14.589455857555809 26.452238999552975 0 0 0 0
723 1 0 -8.8811161697477 24.345056432942375 0 0 0 0
771 1 0 -4.939471690161893 24.740528737806645 0 0 0 0
606 1 0 6.42554337628793 24.368464403756523 0 0 1 0
129 1 0 6.252133255510643 27.48953977616634 0 1 0 0
729 1 0 17.061895997058766 24.31421350955707 0 -1 1 0
94 1 0 14.450936552833078 25.98427087830343 0 1 -1 0
604 1 0 21.446946293049315 24.270540903091778 0 0 0 0
357 1 0 25.363058841948646 26.864930469656112 0 0 0 0
665 1 0 44.76368484347465 26.598653012743714 0 1 0 0
488 1 0 56.2168132080639 25.54663789499636 0 1 1 0
142 1 0 68.64876608038092 26.33507684020281 0 -1 0 0
529 1 0 80.74891012528893 25.685236243696338 0 0 0 0
120 1 0 83.92597188417689 27.195556365849143 0 -1 -1 0
136 1 0 89.59091052702969 25.83029282181806 0 -1 -1 0
417 1 0 -45.61149053701305 27.594205870663707 0 1 0 0
273 1 0 -41.40992401377889 28.77681843453898 0 0 0 0
763 1 0 -34.62241917228559 29.270544499212438 0 1 0 0
603 1 0 -22.761350433252062 29.4883853936328 0 0 -1 0
27 1 0 -20.135316242254408 29.352194741577716 0 0 -1 0
649 1 0 -16.73674148367462 29.134422058325733 0 1 0 0
387 1 0 -12.270951982621373 30.57027054332295 0 0 0 0
490 1 0 -8.12496068288895 28.19517790014486 0 -1 1 0
380 1 0 -5.1823003619154555 28.987688491467267 0 0 0 0
589 1 0 3.378871328520138 28.60581376580876 0 -1 1 0
335 1 0 18.507902980955627 28.76556179074031 0 0 0 0
564 1 0 38.85935262118341 28.25355655996144 0 -1 0 0
501 1 0 55.95932075863314 28.89847713869763 0 -1 0 0
8 1 0 60.41455452380756 27.74856993330848 0 -1 -1 0
610 1 0 76.19434414270664 28.909819275141142 0 0 0 0
278 1 0 79.34907407628342 30.175775844749875 0 0 -1 0
664 1 0 92.41140470609457 27.440242062787664 0 -1 0 0
556 1 0 89.2537069755535 29.346890297050415 0 0 0 0
72 1 0 -50.741566267332885 32.83559990232572 0 1 -1 0
436 1 0 -44.98255848681723 31.722240416866008 0 1 0 0
405 1 0 -39.79890054796293 31.309237909219853 0 0 -1 0
343 1 0 -31.42388651826234 31.206450664176472 0 0 0 0
377 1 0 -29.835572767858235 33.080828962612685 0 1 0 0
106 1 0 -26.783942211323136 31.55104614280649 0 1 -1 0
12 1 0 -24.537110699333684 33.6939604839685 0 0 -1 0
201 1 0 -18.20050479877753 33.05983390106177 0 0 -1 0
392 1 0 -7.47519424027936 31.15718936280011 0 0 0 0
33 1 0 -2.9567187184810213 33.20086049713457 0 -1 0 0
391 1 0 2.22412310499088 31.488199337264746 0 0 0 0
592 1 0 10.844678289393762 31.29092504450771 0 0 1 0
350 1 0 21.486365331072953 32.12074443887166 0 -1 0 0
181 1 0 27.38227086317064 30.754619111864333 0 0 0 0
157 1 0 26.068587989463524 33.88299547450792 0 0 0 0
607 1 0 33.66826748031752 32.188877700608764 0 0 0 0
541 1 0 36.88561697465851 31.59633983582877 0 1 1 0
56 1 0 42.380305483021225 33.738745450627775 0 0 0 0
641 1 0 50.608644280964484 31.52824302506894 0 0 0 0
698 1 0 55.127878730009435 32.44159661683686 0 -1 0 0
51 1 0 65.09736084523301 31.708031088204145 0 0 -1 0
251 1 0 74.56033302216083 31.300069790681775 0 -1 1 0
514 1 0 83.01850581165928 30.561932779398376 0 0 0 0
79 1 0 81.33688318457108 33.64563698791088 0 0 0 0
481 1 0 90.19267954877193 32.82418243210669 0 -1 0 0
203 1 0 -44.858340038897744 35.529120165585 0 0 0 0
365 1 0 -32.59531469691894 36.60358423853794 0 0 -1 0
207 1 0 -21.174723449077526 34.595002105052004 0 1 0 0
172 1 0 -15.664037867098937 35.81520492168054 0 0 0 0
453 1 0 -11.505436218465626 35.14927290539019 0 0 0 0
762 1 0 -4.318386099688636 35.886060280723115 0 0 0 0
512 1 0 0.9894087967029089 36.3504359768652 0 0 0 0
41 1 0 3.169278531510377 34.79788371149799 0 -1 -1 0
513 1 0 11.444577651513187 34.608534586042765 0 0 0 0
295 1 0 16.255846238326388 34.330576286663764 0 0 0 0
16 1 0 23.856562006792792 36.5631789915778 0 -1 -1 0
615 1 0 29.57583449720562 34.99200603809624 0 0 1 0
786 1 0 35.72711527849664 34.6776791125 0 0 1 0
446 1 0 50.19340180630766 34.47060035470836 0 1 0 0
561 1 0 77.00491700274064 34.02142680235872 0 -1 0 0
34 1 0 78.84979340211463 37.07943776236452 0 0 -1 0
413 1 0 93.65783377117315 35.61666690316072 0 1 0 0
493 1 0 -48.580567351871984 40.09649020712892 0 1 0 0
217 1 0 -37.11663691053367 38.53677657214293 0 1 0 0
236 1 0 -32.10061678476493 39.373897661589005 0 0 0 0
497 1 0 -25.9096735466667 38.46611740418674 0 0 0 0
777 1 0 -14.316858587127268 38.40569834932278 0 0 0 0
393 1 0 -0.5271288797048931 39.36637986556449 0 1 0 0
141 1 0 1.8806318617796807 40.77436540776408 0 0 0 0
249 1 0 13.953012180290363 38.9122222558568 0 -1 0 0
441 1 0 25.06908124179605 39.62997977297091 0 1 0 0
525 1 0 28.22982259380955 38.20689756910333 0 0 0 0
272 1 0 33.53642306486891 38.65863958302499 0 0 -1 0
418 1 0 38.033586907225775 39.23984068638511 0 0 0 0
366 1 0 48.38087520564151 38.72904109587202 0 -1 -1 0
348 1 0 53.39300123096333 37.53130520594018 0 -1 0 0
747 1 0 56.35962152963592 39.766307487990424 0 0 1 0
368 1 0 64.80383001717438 39.881599169850325 0 0 0 0
650 1 0 83.20965321199398 38.991125408911934 0 0 1 0
536 1 0 -44.53147762117392 42.11758335844408 0 1 0 0
787 1 0 -41.38526326863252 40.8491684366371 0 1 0 0
575 1 0 -38.417331366741436 42.78914608388552 0 0 -1 0
707 1 0 -18.085654154701903 40.786654826247 0 0 0 0
292 1 0 -14.86815034951534 41.69248081437707 0 0 -1 0
598 1 0 -4.839552913700269 43.73218993501198 0 1 0 0
331 1 0 -1.6696818536193774 42.81272870310639 0 0 1 0
558 1 0 4.8489923121123155 42.18226457797332 0 1 0 0
778 1 0 15.615996798587638 42.40802928428815 0 0 0 0
356 1 0 20.351837544233163 41.58166607348331 0 0 0 0
520 1 0 27.52923216040848 42.019434972087936 0 0 0 0
264 1 0 34.49870388024105 41.194651164878444 0 0 0 0
97 1 0 43.40063399297986 40.95892647532748 0 0 -1 0
667 1 0 67.97143098008115 42.65544725899689 0 1 0 0
149 1 0 76.02784996713592 40.72174101724786 0 0 0 0
637 1 0 75.41319505618266 43.68415629065701 0 -1 0 0
385 1 0 80.06348716986672 41.18092313738264 0 0 0 0
113 1 0 84.47681406008 42.94064869655789 0 0 0 0
683 1 0 88.37183792408517 41.364423606856796 0 0 0 0
44 1 0 95.18862429382655 41.67579328858711 0 -1 0 0
321 1 0 -46.747613271388474 45.78826930392829 0 1 0 0
608 1 0 -43.49877180668365 44.9783163685143 0 0 0 0
582 1 0 -18.13141254996524 45.77474676094515 0 -1 0 0
452 1 0 -13.81969368817275 44.31360958144584 0 0 0 0
684 1 0 -4.62985312448418 46.64233771312809 0 0 0 0
362 1 0 1.4813769654166726 45.32996527627231 0 0 0 0
509 1 0 11.387518903162805 44.59614695588173 0 0 0 0
145 1 0 18.17867876122297 46.241868415987675 0 0 0 0
46 1 0 33.28464747874209 44.26384312059034 0 0 0 0
406 1 0 37.71615035972274 43.93900819766671 0 0 0 0
630 1 0 39.86783408805582 46.880130611945745 0 0 0 0
88 1 0 42.25898407380026 45.181613645422935 0 0 -1 0
96 1 0 49.37248790799929 44.029337403672486 0 0 0 0
383 1 0 53.579041899631115 44.688031529918966 0 -1 0 0
173 1 0 69.02824401988829 45.19344499665276 0 0 -1 0
504 1 0 72.30675267921181 46.052287223335654 0 -1 1 0
15 1 0 82.59462122269584 45.90641924229227 0 -1 -1 0
282 1 0 95.34690887205056 47.36898062160529 0 -1 -1 0
614 1 0 -49.43858553530856 49.12513686277792 0 0 0 0
148 1 0 -42.28719827365962 50.26500193552094 0 0 -1 0
53 1 0 -39.049202602976784 48.0141903280298 0 0 -1 0
528 1 0 -34.4311416752003 48.83909795091744 0 0 1 0
388 1 0 -30.5820734139984 47.81624122142362 0 0 -1 0
293 1 0 -12.67189857422529 47.564517847338685 0 0 -1 0
277 1 0 -6.62313567043673 50.33523546013129 0 0 0 0
112 1 0 1.1930920389883402 50.13260768214558 0 1 -1 0
190 1 0 21.130999453166716 47.668097217017284 0 0 -1 0
788 1 0 25.41997390856127 48.76202135571762 0 -1 1 0
633 1 0 30.966705479948327 50.35676525901501 0 0 1 0
434 1 0 46.52704667067939 47.691531269814604 0 0 1 0
104 1 0 53.44588826187116 47.28975274177483 0 0 0 0
447 1 0 65.69404045443429 47.95506346743479 0 0 0 0
175 1 0 69.48757456343273 48.57104416017667 0 -1 0 0
559 1 0 85.45606537470672 49.292548193271166 0 0 0 0
342 1 0 89.93224498526092 48.80508064788359 0 -1 0 0
92 1 0 -46.10695057629801 52.29833698853854 0 2 -1 0
262 1 0 -38.75223004544418 52.43839597335705 0 0 0 0
423 1 0 -35.42933084758537 51.795041488737404 0 0 1 0
300 1 0 -30.573826322975986 53.02803806899653 0 1 -1 0
779 1 0 -10.346700804621417 53.05323434461291 0 0 0 0
776 1 0 -2.888973849131173 51.42497963657506 0 1 1 0
596 1 0 2.391195036904987 53.010501504881546 0 0 0 0
756 1 0 14.051951045933059 51.35282225558761 0 0 0 0
156 1 0 20.545715795613017 50.22104362104789 0 0 0 0
653 1 0 28.16422169134533 53.12853159646911 0 0 0 0
247 1 0 33.80937526548386 51.88414643774068 0 -2 -1 0
215 1 0 37.49483971603861 50.54972937019797 0 1 0 0
48 1 0 40.356485382080244 50.82887575200948 0 -1 -1 0
471 1 0 50.36602145632346 53.331219164066304 0 -1 0 0
775 1 0 50.85143856725204 50.46745898790411 0 0 1 0
686 1 0 58.8678804091397 53.08840890155627 0 0 0 0
376 1 0 62.946050327691346 53.58543215252195 0 -1 0 0
741 1 0 69.07691380479943 51.50770838158258 0 0 1 0