LAMMPS data file via write_data, version 29 Sep 2021, timestep = 400057

795 atoms
1 atom types

-51 96 xlo xhi
-51 96 ylo yhi
-51 51 zlo zhi

Masses

1 12.0107

Atoms # charge

1 1 -1.0662388374438336e-06 -0.5163845732598351 0.6286858649079592 0 0 0 0
2 1 -3.0955347972566605e-06 0.6581530030574705 0.332441105292572 0 0 0 0
3 1 -1.23976389343472e-06 2.0279520250685863 0.7184281377413243 0 0 0 0
4 1 2.206461112375102e-06 3.112709813822491 -0.36141288667002563 0 0 0 0
5 1 -2.120441556230368e-07 4.249451115774914 -0.47803451133976443 0 0 0 0
6 1 3.1794419054261697e-06 4.746366219252923 0.9027212410075399 0 0 0 0
19 1 -3.9933901710767494e-06 6.2133518754395 0.9308435898262576 0 0 0 0
20 1 -3.687047975320379e-06 7.102269494597344 -0.2204340397245181 0 0 0 0
21 1 1.023993010723645e-05 8.270705627848637 -0.439083529294903 0 0 0 0
22 1 -8.605551390754307e-06 8.886807775953452 0.7944974046474236 0 0 0 0
23 1 7.031960873257054e-06 10.39592956803635 0.8267112584423495 0 0 0 0
24 1 -2.124547335202731e-05 11.093095875963174 -0.37916556395603085 0 0 0 0
37 1 2.225891078523612e-05 12.218717045969813 -0.11005554818049916 0 0 0 0
38 1 -1.5141289966512372e-05 13.263192194196794 0.8538503228472716 0 0 0 0
39 1 3.2573843504329902e-06 14.74558336589792 0.7427153772662871 0 0 0 0
40 1 -6.099984388552304e-06 15.534430912397 -0.3920393196895028 0 0 0 0
41 1 3.890762660996305e-06 16.714818603275106 -0.32836219722351606 0 0 0 0
52 1 1.4335292961020762e-06 17.570206846924666 0.7876543317059519 0 0 0 0
53 1 -3.714874933214568e-06 19.03831098139708 0.6913444500823236 0 0 0 0
54 1 1.1767112114424716e-06 19.837801908891606 -0.5033776745110949 0 0 0 0
55 1 1.9998516246066966e-06 21.018548870364548 -0.1785480891495484 0 0 0 0
56 1 3.0867431322703642e-06 21.945187935866773 0.8706740140601781 0 0 0 0
7 1 2.2448312480966015e-06 -0.3359613359025382 1.876376143325135 0 0 0 0
8 1 -1.1211247213996356e-06 0.26812427057603055 3.1089671990687773 0 0 0 0
13 1 -4.005665670381298e-06 -0.41367941581738393 4.439391783041398 0 0 0 0
14 1 1.3387588486176577e-06 0.20065361102702356 5.800646321590104 0 0 0 0
9 1 -2.78901414645788e-06 1.7144003618721626 3.2352573344335647 0 0 0 0
15 1 -1.194020089224923e-06 1.734638801263162 5.815944183761799 0 0 0 0
10 1 7.148721922922707e-06 2.4589225693969623 2.0636603433315255 0 0 0 0
11 1 -2.251781239449857e-06 3.906984241667471 2.161913045010416 0 0 0 0
12 1 2.7548596032225814e-06 4.578109223589185 3.3641396152862093 0 0 0 0
16 1 2.1228118485192016e-06 2.3759859043713383 4.5382141556767355 0 0 0 0
17 1 -4.310072943894405e-07 3.859473419123391 4.6338026764234375 0 0 0 0
18 1 1.0133388333027904e-06 4.533344853143542 5.893704471364299 0 0 0 0
25 1 -1.6345159296257683e-06 6.071821278827621 3.465936981953808 0 0 0 0
31 1 -1.5151981683919624e-06 6.026820648568476 5.963802318889499 0 0 0 0
32 1 3.7720060988705173e-06 6.7689567625635165 4.704514587481876 0 0 0 0
26 1 -2.20173570712745e-06 6.870973248107666 2.246312320439896 0 0 0 0
27 1 8.388465742512063e-06 8.290727109842482 2.165578807952218 0 0 0 0
28 1 -1.2567403270963284e-06 8.969485774819452 3.417760729900626 0 0 0 0
29 1 9.537945962631578e-06 10.477237396983249 3.3901171741485294 0 0 0 0
30 1 -1.5001473298074941e-05 11.223884698121138 2.182760503053071 0 0 0 0
33 1 -4.608680012369026e-06 8.272903431421932 4.634526325692685 0 0 0 0
34 1 4.5930910732433494e-07 8.939681130910532 5.952086574636545 0 0 0 0
35 1 -1.6870693426151995e-06 10.339458692034729 5.901395087225138 0 0 0 0
36 1 1.6310557040197238e-06 11.03917126338318 4.645140516410776 0 0 0 0
42 1 1.4580582377764217e-05 12.614026714717168 2.1468262990513227 0 0 0 0
43 1 -5.958620343846088e-06 13.265382336225464 3.4661228296689135 0 0 0 0
44 1 -9.846278628544702e-07 14.698066815065655 3.353034401316647 0 0 0 0
45 1 -3.6566828986832334e-06 15.43439096182133 2.1095914937836704 0 0 0 0
46 1 2.01932271672034e-06 16.829998083054353 2.05489645966823 0 0 0 0
47 1 -4.4749187765730225e-07 12.54835750104477 4.703547515020548 0 0 0 0
48 1 5.116363467561058e-06 13.277401555310341 5.930909091410832 0 0 0 0
49 1 -4.125536771995564e-07 14.710468055395069 5.872782763274846 0 0 0 0
50 1 1.8464690463501632e-06 15.39674561749319 4.631668155593863 0 0 0 0
51 1 -2.782803695998426e-06 16.84492208408057 4.5505592192357 0 0 0 0
58 1 6.067721594844866e-06 17.59547763576366 3.3059561874774057 0 0 0 0
59 1 -1.2085251906782113e-06 19.02963833197219 3.3354262331538886 0 0 0 0
60 1 -1.79607399163062e-06 19.763902924718515 2.0190338509717054 0 0 0 0
61 1 -8.777485434666166e-07 21.1736169325157 2.134157894395851 0 0 0 0
62 1 5.071798278577511e-07 21.879634195614518 3.3839896192825973 0 0 0 0
64 1 -5.131269352892653e-07 17.580474221375404 5.796288402023986 0 0 0 0
65 1 -3.3611270777653135e-06 18.98514757500519 5.777403223373456 0 0 0 0
66 1 6.883496255494226e-07 19.741828338065382 4.529625688198459 0 0 0 0
67 1 -4.789897314338987e-07 21.20322778036921 4.641222772341261 0 0 0 0
68 1 1.0277266033337229e-07 21.936807680296702 5.8793551424984924 0 0 0 0
130 1 2.3772859295556614e-06 -0.4625257928445529 7.045220683218052 0 0 0 0
131 1 2.332455177975895e-07 0.26711075604845425 8.418495826670632 0 0 0 0
136 1 -3.576613323008626e-07 -0.521006981283498 9.614232297966621 0 0 0 0
137 1 1.3636977064229033e-06 0.21224707179112207 11.031246179960448 0 0 0 0
138 1 -9.084456135885488e-07 1.6238328884603055 10.94888816446164 0 0 0 0
132 1 -9.338457376065201e-07 1.7809206192775664 8.363335148420271 0 0 0 0
133 1 8.634797100809388e-07 2.452886532746571 7.1026219469285055 0 0 0 0
134 1 -1.0524576685641551e-06 3.906018436733318 7.177415002283921 0 0 0 0
135 1 7.71884809271095e-07 4.603237561329132 8.426370618714088 0 0 0 0
139 1 -3.5884698701416085e-07 2.3663737886088807 9.640396428764442 0 0 0 0
140 1 -5.378471234634974e-07 3.820574210244477 9.696823203070561 0 0 0 0
141 1 -2.4138657367389627e-07 4.485151232946647 10.926057735506594 0 0 0 0
145 1 -1.433269361930667e-06 5.993952169953751 8.412128313956046 0 0 0 0
151 1 4.3554298143066994e-07 6.010963841973327 10.88620223972325 0 0 0 0
146 1 1.6320118058008037e-06 6.779022332433405 7.207577400645606 0 0 0 0
152 1 2.7719329985520513e-07 6.783862244356237 9.609022631007253 0 0 0 0
147 1 -1.7453337554373949e-06 8.235857110155303 7.251697319552165 0 0 0 0
148 1 2.129617940500872e-06 8.983354319019943 8.494236139854047 0 0 0 0
149 1 -3.3406313039302526e-06 10.348212608211417 8.474871263299443 0 0 0 0
150 1 1.8756263899244452e-06 11.106898117277272 7.181825941635411 0 0 0 0
153 1 7.818804889439535e-07 8.231497600003143 9.773734030176406 0 0 0 0
154 1 2.7784731691793407e-06 9.004441199606761 10.936863474080676 0 0 0 0
155 1 -9.393053982051369e-07 10.38954121780784 10.93125038975592 0 0 0 0
156 1 1.4494652336716207e-06 11.14239585360732 9.684103713803074 0 0 0 0
160 1 -2.8895039083653984e-06 12.528518855567347 7.137902392321048 0 0 0 0
161 1 3.095447201617585e-07 13.346759974111334 8.395662515839998 0 0 0 0
162 1 -8.511208054173824e-07 14.77186670248188 8.357938238283978 0 0 0 0
163 1 1.2306461542252456e-06 15.463286346427552 7.154717180806758 0 0 0 0
164 1 -2.02863813439369e-06 16.89875202092198 7.076743376524161 0 0 0 0
165 1 -7.516878396882087e-07 12.582810528239314 9.617008464715555 0 0 0 0
166 1 2.2717961931789654e-07 13.292638192363729 10.854152910085695 0 0 0 0
167 1 -1.4787885455752603e-06 14.774043697117085 10.904673095397184 0 0 0 0
168 1 2.0456002425284225e-06 15.51130484141793 9.673918920530665 0 0 0 0
169 1 -4.866637175610089e-07 16.98640123406415 9.6299105646114 0 0 0 0
173 1 1.5253775058482466e-06 17.71124237835368 8.316775976087438 0 0 0 0
174 1 2.0642061989567528e-07 19.127196579839502 8.333072820697996 0 0 0 0
175 1 1.3780378700506413e-06 19.73342390679217 7.031273966800399 0 0 0 0
176 1 -1.1333055853907092e-06 21.182501752829374 7.062119846376966 0 0 0 0
177 1 1.3383465553087892e-06 21.942202933434874 8.363328205799878 0 0 0 0
179 1 1.6492338086801506e-06 17.661181055218858 10.869055491511608 0 0 0 0
180 1 -1.3284638916560843e-06 19.143556132752106 10.893897792160212 0 0 0 0
181 1 1.2100393495251272e-06 19.822314273621018 9.62121261200173 0 0 0 0
182 1 -2.1993690692487244e-06 21.273158216882432 9.618671165794954 0 0 0 0
183 1 1.856093289474836e-06 22.047880224933497 10.798025096694337 0 0 0 0
142 1 3.277836574944182e-07 -0.585433393993945 12.295595995351318 0 0 0 0
237 1 -4.291632820217252e-07 0.22035902918322883 13.56375579229816 0 0 0 0
240 1 -7.905504824934351e-07 -0.599360591888047 14.859622829359003 0 0 0 0
241 1 9.126040741609664e-07 0.23600659355655335 16.072205132011092 0 0 0 0
143 1 -3.71485357794632e-07 2.347502278953576 12.211716372896845 0 0 0 0
144 1 -1.324194969710979e-06 3.834393003917753 12.20198048306396 0 0 0 0
242 1 -4.824228815730747e-07 1.6870246903551145 16.043173826707587 0 0 0 0
238 1 -6.288158473991001e-07 1.6799711416145109 13.467907465462934 0 0 0 0
239 1 -2.085158614453797e-07 4.5297106255816635 13.440082365532845 0 0 0 0
243 1 1.6283103414574396e-06 2.387898890075474 14.698181159110193 0 0 0 0
244 1 -1.8737329069568043e-07 3.8384035225659425 14.65923656331943 0 0 0 0
245 1 3.2666320392421566e-07 4.5141107222402255 15.945652779698777 0 0 0 0
252 1 -9.863988643735166e-07 6.037399988031873 13.385166849046488 0 0 0 0
255 1 -5.201106602903405e-07 5.9517339155112685 15.934473049814144 0 0 0 0
250 1 3.399542596108085e-07 3.847957224371704 17.239843497007186 0 0 0 0
157 1 7.999000650668608e-07 6.739628765104772 12.145153790950879 0 0 0 0
249 1 3.534540629776539e-06 2.397916110026737 17.338033833784518 0 0 0 0
256 1 4.411248477401153e-07 6.679684836677959 14.640373332758724 0 0 0 0
159 1 6.488763637582662e-07 11.184309085688136 12.181338646745768 0 0 0 0
262 1 4.591612091098263e-07 6.807737698675713 17.1282593936547 0 0 0 0
158 1 -1.809004140512771e-07 8.238271377611271 12.208520067194227 0 0 0 0
253 1 1.6277556065535936e-07 8.861871456894026 13.470005989091135 0 0 0 0
254 1 1.0547371372682246e-06 10.37595561422196 13.349683557514947 0 0 0 0
257 1 -1.1624051554498527e-06 8.167527362650949 14.683820186899737 0 0 0 0
258 1 -4.703379909848371e-07 8.911356399674006 15.889618035031079 0 0 0 0
259 1 -2.3511292955927243e-06 10.401787465906294 15.844490324598036 0 0 0 0
260 1 1.3254269713089406e-06 11.10112105921956 14.581279776499757 0 0 0 0
266 1 6.660946674716395e-07 11.099303117476978 17.116299432595532 0 0 0 0
263 1 -1.9419183673458074e-06 8.23677812607464 17.176212675274034 0 0 0 0
172 1 -5.429968471595825e-07 16.98032145852729 12.159687901103304 0 0 0 0
171 1 3.7348876515824747e-07 15.56186541483293 12.206543253784416 0 0 0 0
170 1 -9.5902680748855e-07 12.606588896676248 12.115712528111029 0 0 0 0
267 1 2.845800294512535e-06 13.350477826578878 13.408522852984794 0 0 0 0
268 1 -1.2460499690808424e-06 14.840976073723258 13.428106738276936 0 0 0 0
269 1 -1.9985732102531517e-06 12.602476562565784 14.572328575735547 0 0 0 0
270 1 6.29618204059379e-07 13.288776174369927 15.837991419313237 0 0 0 0
271 1 4.008536561225795e-07 14.781576836048847 15.814855543122352 0 0 0 0
272 1 4.979483163095044e-07 15.53140138280649 14.668470836745918 0 0 0 0
273 1 -2.470584705295542e-06 17.01284676728097 14.632016723510114 0 0 0 0
274 1 -1.0897990232461297e-06 12.662930914922367 17.148784020950107 0 0 0 0
277 1 2.996568175768488e-06 15.51795977347379 17.089961010474763 0 0 0 0
278 1 -1.3262780794720541e-06 16.990607309838467 17.16307112486847 0 0 0 0
185 1 1.629720460312456e-06 19.791818532047085 12.106322342893725 0 0 0 0
186 1 -1.3029498853109334e-06 21.246096058970732 12.099324085998806 0 0 0 0
279 1 1.4746703661389082e-06 17.77219511141206 13.438921508392342 0 0 0 0
280 1 -2.5334539354091024e-06 19.20689374477103 13.375430512682808 0 0 0 0
281 1 1.4689008822621474e-06 21.99235962207191 13.319839929925532 0 0 0 0
283 1 2.422868350934748e-06 17.70611328446756 15.908911857808288 0 0 0 0
284 1 -1.8286723893895518e-06 19.124934792472512 15.932683445272533 0 0 0 0
285 1 1.8909172507450278e-06 19.899765635186643 14.662747466770574 0 0 0 0
286 1 -3.190511095513271e-06 21.286318343305243 14.578096893285666 0 0 0 0
287 1 3.1468985276852934e-06 22.057473697937553 15.80596197153121 0 0 0 0
291 1 1.562366110152702e-06 19.973532083315675 17.107267750062583 0 0 0 0
292 1 -2.534641393492354e-06 21.40906901503648 17.091543889444335 0 0 0 0
246 1 5.71121417075604e-07 -0.3583033085458578 17.497939172133187 0 0 0 0
247 1 1.0961183513381878e-06 0.22881649969045084 18.77314725943256 0 0 0 0
345 1 -1.327591847649634e-06 -0.6022952711356496 20.142105077112152 0 0 0 0
346 1 1.9945437758697726e-07 0.4685217343658229 20.939027654857455 0 0 0 0
351 1 -1.140915192654468e-06 -0.8533792467255655 21.558719926758467 0 0 0 0
248 1 -1.6595501549955538e-06 1.6662898907787644 18.5184284550949 0 0 0 0
251 1 2.9628203614753823e-06 4.716293365459678 18.429643102928985 0 0 0 0
261 1 -4.247642796870177e-07 6.147366306943976 18.40081078584698 0 0 0 0
347 1 -1.1389395767336108e-06 1.9660244009798409 20.93018595239906 0 0 0 0
348 1 1.899982501087083e-06 2.624175417818585 19.618290693793934 0 0 0 0
349 1 -6.448422461280412e-08 4.062258437826482 19.707850467866887 0 0 0 0
350 1 1.6020404459207715e-06 4.789604350172399 21.02086266978584 0 0 0 0
354 1 1.8774079989167247e-06 2.5929660092193174 22.11902155280331 0 0 0 0
355 1 -2.7628059311723963e-06 4.002122547773985 22.253089638637846 0 0 0 0
360 1 -1.1735242798419088e-06 6.15828876004587 20.946432312689144 0 0 0 0
367 1 1.8250506648512244e-06 6.952238744942748 22.277726069827715 0 0 0 0
361 1 7.805705943969565e-07 6.8837784916314915 19.646968794294878 0 0 0 0
264 1 2.8811051994148684e-07 9.032143750090064 18.37502044525707 0 0 0 0
265 1 -1.8875285890881943e-06 10.511144625098945 18.404827244001627 0 0 0 0
362 1 -8.753586903734178e-07 8.325562153896556 19.668315737621466 0 0 0 0
363 1 1.763913400669448e-06 8.973272473477028 20.91166375777927 0 0 0 0
364 1 -8.258913003003632e-07 10.45497830613664 20.89657918344071 0 0 0 0
365 1 1.480259844949261e-06 11.125811990611512 19.67527524639349 0 0 0 0
368 1 -1.406286963219483e-06 8.351919232298666 22.239759970206304 0 0 0 0
371 1 2.673997577952447e-06 11.212430219496792 22.07217994360832 0 0 0 0
275 1 1.5006528649580408e-06 13.29672939930211 18.402948875790205 0 0 0 0
276 1 -2.8481285369447162e-06 14.800879952400088 18.33976453040715 0 0 0 0
375 1 -1.5001614557461074e-06 12.620456765185605 19.720111444368865 0 0 0 0
376 1 2.0945991223222937e-06 13.411826764453986 20.856424489564112 0 0 0 0
377 1 -2.5480364072849593e-06 14.909150610169148 20.808708058707047 0 0 0 0
378 1 1.6951901536665925e-06 15.524639662550669 19.51869751362461 0 0 0 0
379 1 -1.5160879734271715e-06 17.02169674869511 19.642525355797474 0 0 0 0
380 1 -1.5059564471356368e-06 12.7010521924358 22.070757708022082 0 0 0 0
383 1 2.032367174366334e-06 15.573957657771995 22.072878823320494 0 0 0 0
384 1 -2.9787639398634602e-06 17.003983452257653 22.046936043258885 0 0 0 0
289 1 1.8176410662984477e-06 17.701558565210853 18.400135605387362 0 0 0 0
290 1 -1.2071401938734683e-06 19.17163956456038 18.367678232490046 0 0 0 0
293 1 2.690203298835736e-06 22.16934919735772 18.33596987782035 0 0 0 0
388 1 2.272190487852266e-06 17.796471108697325 20.82371220457276 0 0 0 0
389 1 -3.595931648107953e-06 19.261189433808152 20.804709055351253 0 0 0 0
390 1 3.8136660955104262e-06 19.970614170756747 19.52955984529438 0 0 0 0
391 1 -2.7415466890071127e-06 21.392296151424837 19.533321306415676 0 0 0 0
392 1 2.2149564038523306e-06 22.136510300947315 20.7827235095222 0 0 0 0
396 1 2.159795116682406e-06 19.921384511396198 22.064328172775824 0 0 0 0
397 1 -2.0875688649182877e-06 21.436147079361717 22.048026447109365 0 0 0 0
352 1 -6.16147174184456e-07 -0.3610242505955944 22.885183127330027 0 0 0 0
357 1 1.6033201405557529e-06 0.5514556536009834 23.826112056086615 0 0 0 0
452 1 -9.989829592715882e-08 0.519017620408927 25.544635333078308 0 0 0 0
455 1 -6.431791823302557e-07 0.0719931035188816 26.625302309397416 0 0 0 0
353 1 -2.801804398343266e-06 1.9473186018476691 23.41814597026918 0 0 0 0
356 1 1.8073857482800437e-06 4.8141404511818005 23.429618653237828 0 0 0 0
358 1 1.3979338641598171e-06 2.686302560659348 24.632094541755247 0 0 0 0
359 1 -2.3010563314981858e-06 4.098396424592967 24.72352972572051 0 0 0 0
366 1 -3.5354109907126396e-06 6.249873127441509 23.491455037877323 0 0 0 0
453 1 3.28712126754227e-07 1.9291257585799957 25.862065355859897 0 0 0 0
454 1 2.421390597723283e-06 4.787634732016282 25.985752073460397 0 0 0 0
458 1 1.5430274431030289e-06 2.6363621126108137 27.315977269065154 0 0 0 0
459 1 -1.6225461228688842e-06 4.087988660557402 27.23737345011931 0 0 0 0
467 1 -3.6269466472185763e-06 6.2306855356305695 25.9428150247933 0 0 0 0
372 1 9.988699759752584e-07 7.0158495874811075 24.707427203688912 0 0 0 0
471 1 3.1263652749205506e-06 6.910069894669669 27.163511656815185 0 0 0 0
369 1 1.3953924072121482e-06 9.20845558221336 23.420190289177857 0 0 0 0
370 1 -1.9551984518362264e-06 10.604732053279188 23.425565383592225 0 0 0 0
373 1 -2.3665773687883696e-06 8.457332208563889 24.66388524416975 0 0 0 0
374 1 2.089829222014228e-06 11.349476067109785 24.670882326245426 0 0 0 0
468 1 1.5827907556068e-06 9.178072997092901 25.869364687203994 0 0 0 0
469 1 -3.106734128302535e-06 10.65670437907242 25.937093770193112 0 0 0 0
472 1 -2.952215448943918e-06 8.364825164454757 27.10028099135799 0 0 0 0
475 1 2.1843303303695216e-06 11.269392251474034 27.217723342069323 0 0 0 0
381 1 2.0222434898853336e-06 13.42503677527157 23.32613314783981 0 0 0 0
382 1 -2.9252083809105933e-06 14.899968325580625 23.361914199881685 0 0 0 0
385 1 -8.058302310154364e-07 12.800665670089156 24.68344731200785 0 0 0 0
386 1 3.556466319672158e-06 15.666128272251084 24.555067238058758 0 0 0 0
387 1 -2.994646240477017e-06 17.05833399823557 24.567170715224037 0 0 0 0
482 1 1.644307360749997e-06 13.533743604997824 25.924694628090542 0 0 0 0
483 1 -2.752292168180237e-06 14.942969838279247 25.882408149736392 0 0 0 0
484 1 -3.672665858135693e-06 12.688420880915599 27.160804328786 0 0 0 0
487 1 1.289798761822114e-06 15.590558404585193 27.16663720446635 0 0 0 0
488 1 -2.198755383465978e-06 17.085509664848793 27.035178408723578 0 0 0 0
394 1 1.920208024350223e-06 17.72336766048955 23.265757924962205 0 0 0 0
395 1 -2.464036086356758e-06 19.20298603064117 23.336382424285897 0 0 0 0
398 1 1.4646814237573302e-06 22.000449565500535 23.38672934631031 0 0 0 0
400 1 2.4210152205286772e-06 19.901277807753093 24.523081968160522 0 0 0 0
401 1 -3.1033280732464807e-06 21.34733101569455 24.641903682485065 0 0 0 0
494 1 2.932674697288251e-06 17.848186429814977 25.79488502234171 0 0 0 0
495 1 -2.7073929947454833e-06 19.32762675326597 25.85003723909121 0 0 0 0
496 1 3.3238334591692564e-06 22.073838745519158 25.92456681736157 0 0 0 0
500 1 2.4657794013005496e-06 19.90284072412617 27.08798361693397 0 0 0 0
501 1 -2.6583589983752987e-06 21.371647253419308 27.112193428962723 0 0 0 0
456 1 2.497665238555824e-07 0.3963234880078782 28.01049225802877 0 0 0 0
461 1 1.4241066368936295e-06 -0.3554652420138828 29.262467480330763 0 0 0 0
462 1 -2.0316612414569835e-06 0.23724624202340217 30.649691483583318 0 0 0 0
560 1 -2.0855643591277673e-06 -0.5058442197881236 31.933224361831282 0 0 0 0
463 1 -1.7291475056246952e-06 1.7099282331393055 30.95746718452963 0 0 0 0
457 1 -2.3839358168319114e-06 1.8496547445391478 28.395892386294616 0 0 0 0
460 1 2.3233578573117475e-06 4.714633582837489 28.567808527569927 0 0 0 0
464 1 1.2532757462171973e-06 2.487866917090614 29.714727095818677 0 0 0 0
465 1 -2.219103495390562e-06 4.008185231047122 29.772779689315566 0 0 0 0
466 1 1.6558493562759957e-06 4.716167419956897 31.006497427311118 0 0 0 0
470 1 -2.2637640517478297e-06 6.123686912484844 28.414225872684085 0 0 0 0
476 1 -3.934454294279854e-06 6.1981493517800255 30.918907372024286 0 0 0 0
563 1 1.221645805488114e-07 2.391840826930856 32.18076903919151 0 0 0 0
564 1 -2.5934831315577167e-06 3.8967634452639053 32.13901570637171 0 0 0 0
579 1 1.2869219227218398e-06 6.877245125123825 32.15029265745006 0 0 0 0
477 1 1.982808064453223e-06 6.88214935497436 29.613231882828252 0 0 0 0
473 1 2.002379051110892e-06 9.001030899131052 28.37544995646171 0 0 0 0
474 1 -2.426902232878503e-06 10.414430178064336 28.42981374241387 0 0 0 0
478 1 -1.7889416077734865e-06 8.347935946032967 29.662900148161906 0 0 0 0
479 1 2.2103655042404746e-06 9.039657092162326 30.924969653605704 0 0 0 0
480 1 -2.639202157796172e-06 10.519785150271394 30.925485006110037 0 0 0 0
481 1 2.5654389714455106e-06 11.20527101875088 29.66977292343322 0 0 0 0
580 1 -3.72538660196875e-06 8.351429329306523 32.15520673675995 0 0 0 0
583 1 2.796130747162451e-06 11.16557935841311 32.181156985944334 0 0 0 0
485 1 3.2192181728257774e-06 13.347471390620859 28.445411679427714 0 0 0 0
486 1 -3.7676912531120488e-06 14.862728063210525 28.413122514819378 0 0 0 0
489 1 -2.419977617122704e-06 12.64981233276124 29.621673948202506 0 0 0 0
490 1 3.58894221330619e-06 13.339737263147967 30.85223290276193 0 0 0 0
491 1 -3.0144997786515915e-06 14.761171175984325 30.84985742893259 0 0 0 0
492 1 3.2196589820412957e-06 15.594114278448641 29.606294816252802 0 0 0 0
493 1 -4.337996437071834e-06 17.029642880204303 29.566804883846725 0 0 0 0
596 1 -2.8208604881049815e-06 12.595829687514417 32.13424069302737 0 0 0 0
599 1 3.7395472692741683e-06 15.549925215881945 32.03540526380894 0 0 0 0
600 1 -3.133602674683378e-06 16.992410010547648 32.08085893926311 0 0 0 0
498 1 1.3403979401555022e-06 17.777967609167252 28.339246346047243 0 0 0 0
499 1 -2.066058549701766e-06 19.271700015499263 28.346907375449117 0 0 0 0
502 1 1.2053779367485196e-06 22.125915453220298 28.384529991115357 0 0 0 0
504 1 2.2373512522586014e-06 17.727572276202242 30.885823984466043 0 0 0 0
505 1 -3.2019940971808603e-06 19.178327298550613 30.897883590851887 0 0 0 0
506 1 2.8137152168067336e-06 19.89560687637371 29.611796417548508 0 0 0 0
507 1 -2.5441696094655186e-06 21.34931410686621 29.668842833451677 0 0 0 0
508 1 1.886243046408942e-06 22.048781667510987 30.8791711881227 0 0 0 0
613 1 2.404526714627764e-06 19.80397377834136 32.11644291198091 0 0 0 0
614 1 -2.5035178919732837e-06 21.290217609492863 32.09636924224548 0 0 0 0
561 1 1.5242241734724632e-06 0.1500657682744868 33.280357058219195 0 0 0 0
566 1 2.8720757161426747e-07 -0.47458095156491215 34.60256290520278 0 0 0 0
567 1 3.845997403658513e-07 0.37810504242736054 35.85793513719957 0 0 0 0
572 1 1.0419961180008208e-07 -0.34171022584355615 37.145432610922626 0 0 0 0
562 1 -1.4588307335680617e-06 1.6556335816719658 33.39144111095022 0 0 0 0
568 1 2.804696182731603e-07 1.8396963621735105 35.8175267057927 0 0 0 0
565 1 6.435681085409373e-07 4.697889728644107 33.38516700267728 0 0 0 0
569 1 1.6963286917567877e-06 2.4936233337334115 34.579144892900885 0 0 0 0
570 1 -1.266740322899973e-06 3.970815018173041 34.58040578287138 0 0 0 0
571 1 2.752321434117133e-06 4.787366631226308 35.78393500768853 0 0 0 0
575 1 2.2753884736381735e-06 2.56390464304576 37.07687749144132 0 0 0 0
576 1 -6.710912106369649e-07 4.05358246472103 37.03401166650634 0 0 0 0
578 1 -9.782755965859202e-07 6.181586323897507 33.37387179143088 0 0 0 0
584 1 -1.1334396914641776e-06 6.211642096596665 35.8885715967926 0 0 0 0
585 1 1.2186920385903743e-06 6.878090992577767 34.62534996407121 0 0 0 0
591 1 2.3892889338475443e-06 6.939592140831141 37.19005594722529 0 0 0 0
581 1 -1.6823812973298935e-07 9.022195870554974 33.39350355944216 0 0 0 0
582 1 -2.4205042264413557e-06 10.477285437762111 33.50798811572753 0 0 0 0
586 1 -2.141083844726943e-06 8.326916423034305 34.654750916419786 0 0 0 0
587 1 2.2962164424808473e-06 9.097349993853175 35.86629858668877 0 0 0 0
588 1 -2.622984899509906e-06 10.500272857032789 35.92862940832673 0 0 0 0
589 1 4.196927614399937e-07 11.212019909165331 34.68606124327601 0 0 0 0
592 1 1.0542060104104523e-06 8.352420475328868 37.194234169324005 0 0 0 0
595 1 2.076423365977853e-06 11.310748457094935 37.16186081141143 0 0 0 0
597 1 2.6215878662222414e-06 13.325479048839629 33.351879900570815 0 0 0 0
598 1 -1.8822463472845108e-06 14.875202821707415 33.30419752722842 0 0 0 0
601 1 -2.456742320348926e-06 12.683027487718967 34.61450797388332 0 0 0 0
602 1 9.938358969605043e-07 13.37181650768041 35.885600818194405 0 0 0 0
603 1 -3.1148146852760794e-06 14.793547387206813 35.864349296649436 0 0 0 0
604 1 2.5759318073997894e-06 15.53579908037541 34.55028398668366 0 0 0 0
605 1 -2.012376096663382e-06 17.00079337358903 34.65879345581764 0 0 0 0
606 1 -1.0929883956303788e-06 12.728170687938736 37.15779629153052 0 0 0 0
609 1 1.8271962813690146e-06 15.529372626508009 37.114075367999554 0 0 0 0
610 1 -9.020254495076263e-07 16.948809509241062 37.214394826717054 0 0 0 0
611 1 3.7902115690088833e-06 17.67097397483613 33.42789849920289 0 0 0 0
612 1 -2.3048930042623983e-06 19.058993634553495 33.41232567439889 0 0 0 0
615 1 1.990819637399943e-06 21.930797872701365 33.31329292274356 0 0 0 0
617 1 2.034444740145469e-06 17.66802091533828 35.93952892716299 0 0 0 0
618 1 -1.4005804167133151e-06 19.084529050441986 36.02256833508263 0 0 0 0
619 1 2.459275425893692e-06 19.75780089734601 34.68277872199004 0 0 0 0
620 1 -2.1153546663280065e-06 21.144834743069225 34.62714509710829 0 0 0 0
621 1 1.921686232170261e-06 21.81802919241869 35.84795366463064 0 0 0 0
625 1 2.7097883312579563e-06 19.8136851449859 37.26195666329376 0 0 0 0
626 1 -1.4526222831337532e-06 21.217661461259873 37.19204645482458 0 0 0 0
573 1 8.349747583902278e-07 0.3567445774017785 38.48498486832012 0 0 0 0
689 1 -3.582450263259207e-06 -0.5119431939972828 39.586256645064985 0 0 0 0
690 1 1.4631058449345383e-06 0.38867419763279937 40.693817793032714 0 0 0 0
695 1 1.6857725915198074e-07 -0.9753930029383823 40.95997323996018 0 0 0 0
696 1 -6.280220253770952e-07 -1.6875156826685629 42.15781803719521 0 0 0 0
701 1 4.958944287425382e-07 -2.200717282758892 43.27848975928653 0 0 0 0
590 1 -4.666162416087916e-06 6.147975488785308 38.40539584209277 0 0 0 0
577 1 -8.455326652029305e-07 4.6974099101069156 38.2758307135054 0 0 0 0
574 1 -4.07719482824892e-06 1.7990870243583112 38.31352422451594 0 0 0 0
691 1 8.117716499965455e-06 1.8052720244068998 40.825973187762905 0 0 0 0
692 1 1.5046244842831236e-06 2.6156460703779074 39.534929110837616 0 0 0 0
693 1 -3.206285970815126e-06 4.05640609122036 39.556784721808185 0 0 0 0
694 1 4.877592831090127e-06 4.822532174428277 40.78035066186815 0 0 0 0
698 1 -4.15077354000426e-06 2.524306529514781 42.07564855604196 0 0 0 0
699 1 -2.3358318566070457e-06 3.9579016220044694 41.91712134660142 0 0 0 0
704 1 -1.1694601433978602e-06 6.299645461529533 40.913940922168166 0 0 0 0
710 1 -1.589839235067829e-05 6.066896486246948 43.47236409955923 0 0 0 0
700 1 6.868764485433443e-06 4.614385288348287 43.23540031704154 0 0 0 0
697 1 -9.818280192974704e-06 2.13201775903642 43.577268675916024 0 0 0 0
705 1 9.84891663689813e-07 6.908725394719678 39.61785091378545 0 0 0 0
593 1 2.3508576640560164e-06 9.049768006747184 38.38698228357117 0 0 0 0
594 1 -1.2815968862267546e-06 10.559511974235805 38.39572331921996 0 0 0 0
711 1 4.909117621999803e-06 6.88396478800402 42.20368516935078 0 0 0 0
706 1 -7.849363211638594e-06 8.359462735710952 39.660773928815324 0 0 0 0
707 1 6.820132102625109e-06 9.042367528216811 40.942429889068265 0 0 0 0
708 1 -5.385438362578987e-06 10.451612632680058 40.96241750937727 0 0 0 0
709 1 4.049770047247214e-06 11.177116605206418 39.67165105971394 0 0 0 0
712 1 -4.828004553428938e-06 8.295586934878937 42.212741845971436 0 0 0 0
715 1 6.787525118463755e-06 11.142265717184431 42.22908596033622 0 0 0 0
714 1 -9.377432292158316e-06 10.416906470234151 43.48631025348214 0 0 0 0
713 1 7.0904397022134025e-06 8.963384824117817 43.45700909505145 0 0 0 0
608 1 -1.6725122355051858e-06 14.833886245935355 38.4128208187197 0 0 0 0
607 1 1.1854707004932408e-06 13.40643709438112 38.532007154835476 0 0 0 0
719 1 -2.284396211221784e-06 12.590397222744047 39.74601736832105 0 0 0 0
720 1 1.5337662812794917e-06 13.273782829412482 41.07977921539515 0 0 0 0
721 1 -5.460456673281322e-07 14.68600699590829 41.06426526428921 0 0 0 0
722 1 -3.2971498537676114e-07 15.408635957071585 39.73556693574624 0 0 0 0
723 1 -1.1728052170117964e-06 16.826809318232595 39.767210240223584 0 0 0 0
724 1 -4.677505121977038e-06 12.565036590488308 42.405050485789594 0 0 0 0
727 1 -1.4167391708327925e-06 15.52964820760898 42.278597088937005 0 0 0 0
728 1 2.3273721288831484e-06 16.932288493240094 42.25543662356962 0 0 0 0
623 1 -1.3709918339488425e-08 17.571592797519447 38.51970180162298 0 0 0 0
624 1 -1.684212026155374e-06 19.022440322289697 38.48247939781331 0 0 0 0
627 1 6.201898764685021e-08 21.91185614203704 38.482287737804754 0 0 0 0
732 1 6.405602383866005e-07 17.612684423098017 41.01661909597609 0 0 0 0
733 1 -4.4430878443080246e-07 19.088614413597952 40.96440195084054 0 0 0 0
734 1 1.6034928601443843e-06 19.75890779193416 39.69792762418278 0 0 0 0
735 1 -2.3771630990043757e-08 21.275756054990282 39.75008704919637 0 0 0 0
736 1 2.7204557557225506e-06 21.99178859666069 40.9923038193573 0 0 0 0
740 1 4.701690041221396e-07 19.89443018819226 42.2083063468788 0 0 0 0
741 1 -1.1444383947456505e-09 21.315994395146124 42.188492365216085 0 0 0 0
739 1 -9.186766728522255e-07 19.075553293767708 43.41011033510935 0 0 0 0
702 1 2.114048982843064e-06 2.5949210067582387 44.683639967769125 0 0 0 0
703 1 6.5237998183032e-06 3.807081711339007 44.36101415793883 0 0 0 0
716 1 8.937794331836946e-06 6.708694142824073 44.72374258397604 0 0 0 0
717 1 1.9245762472169803e-06 7.899945957341475 44.48751025511937 0 0 0 0
718 1 3.7166040040559345e-06 11.26168184530772 44.674230541777014 0 0 0 0
725 1 3.1524192808385365e-06 13.301675037485186 43.62331858455064 0 0 0 0
726 1 -2.181110182068735e-06 14.742688845107592 43.54465153247276 0 0 0 0
729 1 -2.603603905776408e-06 12.422576118368424 44.808443233556304 0 0 0 0
730 1 -7.276541440504047e-07 15.65360250005993 44.64096885591555 0 0 0 0
731 1 2.0720432233611863e-06 16.812214928261998 44.74813074918428 0 0 0 0