LAMMPS data file via write_data, version 14 Dec 2021, timestep = 400100

795 atoms
1 atom types

-51 96 xlo xhi
-51 96 ylo yhi
-51 51 zlo zhi

Masses

1 12.0107

Pair Coeffs # lj/cut

1 0.066047 3.4

Atoms # charge

658 1 0 -43.638450256581926 -48.76163747833991 0 1 1 0
592 1 0 -28.68115416541591 -48.28672134220267 0 0 1 0
481 1 0 -22.532187745337904 -50.19894113864733 0 0 1 0
571 1 0 -18.086294123263823 -49.816686739971644 0 0 1 0
709 1 0 -13.246270765536494 -48.98089633767862 0 0 1 0
387 1 0 12.452941063567792 -49.28878863737348 0 0 1 0
385 1 0 19.053715536722066 -49.14690365036563 0 0 1 0
494 1 0 34.81184414152539 -50.613197690048594 0 0 1 0
231 1 0 39.234613450532706 -50.3372216601267 0 0 0 0
781 1 0 43.83883739317113 -49.69470484166898 0 0 1 0
751 1 0 49.84244895023528 -48.16613080341339 0 0 1 0
620 1 0 63.05973113833288 -48.769314592849604 0 0 1 0
29 1 0 74.8363698079234 -50.02736931281822 0 -1 0 0
12 1 0 85.70073688239587 -49.455078900979395 0 -1 0 0
128 1 0 -47.539567666854026 -47.60002454501107 0 1 0 0
34 1 0 -41.55435115252195 -44.856498244617164 0 0 0 0
501 1 0 -37.92204775856754 -47.55867038946392 0 0 1 0
276 1 0 -32.75091584782938 -47.33406898070198 0 0 0 0
164 1 0 -23.784592633977237 -44.89020426440053 0 0 0 0
583 1 0 -18.51009407855451 -45.35968434282626 0 0 1 0
611 1 0 -7.71794120631745 -47.563774329021584 0 0 1 0
718 1 0 -5.199026904133689 -45.373236424809434 0 0 1 0
737 1 0 0.6588398157824741 -45.98072692308425 0 0 1 0
733 1 0 11.883971231321198 -44.799307222171215 0 0 1 0
791 1 0 23.254308892269826 -44.614110731850225 0 1 1 0
608 1 0 25.736939493111365 -47.09921076628466 0 0 1 0
596 1 0 33.57903910189375 -47.495988551427075 0 0 1 0
386 1 0 37.6753672514132 -46.47715592893689 0 0 1 0
723 1 0 42.26290663582557 -46.54291329691854 0 0 1 0
735 1 0 46.2624590393074 -47.21625626202449 0 0 1 0
124 1 0 49.365884551712234 -44.55148871951401 0 0 0 0
243 1 0 60.65675719757328 -44.92314371523866 0 -1 0 0
229 1 0 63.76299679170313 -44.42383579282083 0 0 0 0
327 1 0 67.63929987614654 -44.590250063993025 0 0 0 0
747 1 0 71.07650187412615 -47.06715506217246 0 0 1 0
11 1 0 82.13219600906784 -47.48257158584189 0 -1 0 0
135 1 0 85.97005377067993 -45.26014769020238 0 -1 0 0
226 1 0 88.74957110430412 -47.29584553045129 0 0 0 0
458 1 0 93.31587992112375 -46.87723362437309 0 -1 1 0
236 1 0 -37.019387941994744 -43.56697659913115 0 1 0 0
120 1 0 -30.501591132919895 -43.50551181288889 0 1 0 0
565 1 0 -13.569094570620862 -43.13469874435057 0 0 1 0
717 1 0 -2.55288321208998 -43.15254706789214 0 0 1 0
619 1 0 7.265620437466672 -44.35727848784507 0 0 1 0
487 1 0 14.632774337273283 -42.326298468206915 0 0 1 0
472 1 0 19.57356962832652 -42.96847727544972 0 0 1 0
758 1 0 26.49135593424401 -42.412072123153024 0 0 1 0
217 1 0 34.976640902975824 -43.63623109595002 0 0 0 0
155 1 0 52.80719771409751 -43.54477034857206 0 -1 0 0
163 1 0 56.67203697496571 -44.09359779786536 0 -1 0 0
42 1 0 58.42885008667222 -41.22360820138342 0 -1 0 0
345 1 0 62.33161138343836 -41.76831625645201 0 -1 0 0
75 1 0 81.82791678010018 -44.10765388723727 0 0 0 0
8 1 0 87.22270311065162 -41.33560860978947 0 -1 0 0
704 1 0 94.36428491216662 -43.64440978366134 0 -1 1 0
134 1 0 -45.87286414346657 -40.55006096680109 0 0 0 0
193 1 0 -41.49570990945243 -40.87539190950757 0 0 0 0
160 1 0 -31.106807667972152 -38.316831142023375 0 0 0 0
691 1 0 -24.38393257802403 -39.975710445554434 0 0 1 0
221 1 0 -14.495078866716867 -38.63912741868429 0 1 0 0
264 1 0 -5.832483996730222 -39.600445107765026 0 0 0 0
727 1 0 1.5801975979433047 -40.74676737332362 0 0 1 0
309 1 0 9.174049226728485 -38.38794019329693 0 0 0 0
3 1 0 12.921059482963328 -38.719684931255316 0 0 0 0
741 1 0 22.298930140140435 -39.8183304496647 0 0 1 0
643 1 0 30.519136041594884 -38.44266376233628 0 0 1 0
324 1 0 43.17662154519729 -39.69033854724193 0 0 0 0
333 1 0 46.42662988015942 -39.06175573142307 0 0 0 0
165 1 0 51.484764477700544 -38.7280881297925 0 -1 0 0
142 1 0 69.39945790016667 -38.29004156123827 0 -1 0 0
156 1 0 80.53138861286249 -39.97660369071863 0 -1 0 0
132 1 0 84.39296014150314 -38.115982292592136 0 -1 0 0
650 1 0 89.14449880402609 -38.59756939484768 0 0 1 0
649 1 0 93.47259054583436 -39.28826240704909 0 0 0 0
711 1 0 -49.7518853306463 -35.69270035266114 0 0 1 0
224 1 0 -45.78975398541074 -35.41290295638757 0 1 0 0
241 1 0 -39.178087417549584 -36.21502206391374 0 0 0 0
616 1 0 -34.91620561659976 -37.742029117265794 0 0 1 0
590 1 0 -19.377932822892664 -36.20596084375756 0 0 1 0
307 1 0 -9.436200795525641 -37.8460480873539 0 0 0 0
742 1 0 2.6266046846540823 -36.38285357067831 0 0 1 0
232 1 0 20.974896924671704 -35.8522794220817 0 0 0 0
685 1 0 27.305604310818786 -36.743876065923466 0 1 1 0
234 1 0 40.36806819500316 -36.40962744516412 0 0 0 0
339 1 0 56.974029402281346 -36.9300536614957 0 0 0 0
223 1 0 65.79300898114089 -37.89128015560001 0 0 0 0
244 1 0 76.24162682593898 -36.749934246880805 0 -1 0 0
417 1 0 86.24844888051365 -35.23518441729175 0 0 0 0
239 1 0 93.41263779931145 -35.91261680163181 0 -1 0 0
342 1 0 -42.19522987060822 -34.14204382420999 0 1 0 0
605 1 0 -26.072175234320664 -32.23111960688777 0 0 1 0
728 1 0 -22.344526243450733 -32.64504204334223 0 0 1 0
373 1 0 -12.621497638773105 -33.30256439221594 0 0 1 0
698 1 0 -9.162785076305395 -32.918536860101796 0 0 1 0
270 1 0 -1.1466125342925153 -34.4114215451583 0 0 0 0
170 1 0 3.24872822545904 -32.08227424728112 0 -1 0 0
57 1 0 10.49863641445887 -33.22848097363418 0 0 0 0
198 1 0 15.265241878774924 -32.464308152399695 0 0 0 0
131 1 0 20.90826145740078 -32.05744600069013 0 -1 0 0
431 1 0 30.84802860933365 -33.76978490780867 0 0 0 0
69 1 0 33.470494877807475 -32.036697007955524 0 0 0 0
433 1 0 44.56520786721312 -31.466576778619025 0 0 0 0
535 1 0 50.08699442502139 -32.242378291165046 0 0 0 0
33 1 0 52.88133950325866 -34.43032462101937 0 -1 0 0
700 1 0 64.69260351524233 -34.12329271726398 0 -1 1 0
172 1 0 72.50624533644584 -32.192806230297386 0 -1 0 0
405 1 0 76.838776447901 -32.64552865919583 0 0 0 0
263 1 0 88.94854447524372 -32.06182368689317 0 -1 0 0
710 1 0 -47.454778373468365 -30.519574764444485 0 0 1 0
1 1 0 -37.552204991545395 -28.91703769806755 0 0 0 0
50 1 0 -30.07831328022894 -29.27749945829934 0 0 0 0
702 1 0 -20.829911846710946 -28.3628480112291 0 0 1 0
732 1 0 -17.627643398874042 -30.229718042967562 0 0 1 0
133 1 0 -12.722800305251123 -29.42499662418317 0 0 0 0
594 1 0 -9.738468361373167 -28.405716182718248 0 0 1 0
13 1 0 -6.331797645967532 -31.248780375498466 0 0 0 0
363 1 0 -1.9458799689043382 -28.429504191175656 0 0 0 0
214 1 0 9.309828322103757 -29.337661423127532 0 0 0 0
609 1 0 14.588907256328746 -28.24309466379899 0 0 1 0
76 1 0 25.81898820869835 -28.420134022838 0 0 0 0
67 1 0 29.683633819542624 -29.468273547282408 0 0 0 0
86 1 0 36.06265150624674 -29.103387384724616 0 0 0 0
44 1 0 40.47472258925291 -30.865972091147903 0 -1 0 0
419 1 0 52.85685353934512 -30.227085934388153 0 0 0 0
542 1 0 78.98342741118725 -28.560504367201222 0 0 0 0
425 1 0 83.44443177325559 -29.95593600911553 0 0 0 0
341 1 0 91.69355030151782 -28.793729666762825 0 0 0 0
455 1 0 95.61834289051752 -29.698130911454736 0 -1 0 0
391 1 0 -48.653405282020316 -26.17128822787581 0 0 0 0
720 1 0 -34.76170323039548 -27.498646145197473 0 0 1 0
721 1 0 -29.887445674942537 -25.767893604455182 0 0 1 0
152 1 0 -25.200198509211212 -26.1779473697476 0 0 0 0
281 1 0 -16.84747145725244 -26.53765182383807 0 0 0 0
79 1 0 -5.3498107695246775 -26.8724782752137 0 0 0 0
379 1 0 12.304183003174074 -25.22254831957357 0 0 0 0
282 1 0 19.655850140581126 -25.911701428491156 0 0 0 0
627 1 0 23.789005854223323 -24.9983335278366 0 0 1 0
84 1 0 29.00646663187815 -25.6805483908762 0 0 0 0
331 1 0 32.68695393166665 -27.04556022885484 0 0 0 0
406 1 0 41.01358596352739 -27.03743462033411 0 0 0 0
225 1 0 45.1488581125101 -27.3585303077439 0 0 0 0
321 1 0 50.165349326659516 -27.838826769610062 0 0 0 0
332 1 0 55.538231845249676 -27.907627004645438 0 0 0 0
317 1 0 59.91219215390272 -27.574394709081457 0 -1 0 0
18 1 0 65.93765534476113 -28.028549066745008 0 -1 0 0
31 1 0 68.81667029737993 -26.362142495083848 0 -1 0 0
238 1 0 76.99863712908284 -24.94261456800655 0 -1 0 0
58 1 0 87.58536507729765 -26.23377957833884 0 -1 0 0
716 1 0 -50.82949874516094 -23.671567658351943 0 0 1 0
4 1 0 -43.25680688882724 -24.65984732919242 0 0 0 0
617 1 0 -31.252366149576073 -22.460983260267316 0 0 1 0
694 1 0 -17.872330752861902 -23.28864917309204 0 0 1 0
392 1 0 4.527625577775325 -24.03811252369111 0 0 0 0
748 1 0 8.64332768133495 -24.806019584119298 0 0 1 0
280 1 0 15.414689061587014 -21.82191329556903 0 0 0 0
100 1 0 31.794829313159653 -23.1318163323076 0 0 0 0
526 1 0 36.352035615455684 -23.874479454924412 0 0 0 0
429 1 0 48.25029062673327 -24.35038572731079 0 0 0 0
516 1 0 56.231021513730994 -23.956887420271872 0 0 0 0
267 1 0 72.16068788428372 -21.76783127199678 0 -1 0 0
47 1 0 80.57378446113592 -23.963733372987278 0 -1 0 0
126 1 0 -44.75543483895959 -20.76526697045031 0 1 0 0
219 1 0 -37.4450514602812 -19.730543533844504 0 1 0 0
432 1 0 -22.23430007716117 -20.258731121337842 0 1 0 0
347 1 0 -19.01032107725774 -20.08936738171314 0 0 0 0
401 1 0 -15.152668801196294 -20.714132145914956 0 0 0 0
618 1 0 -6.020734262828956 -18.603755734288036 0 0 1 0
582 1 0 6.2928082883059595 -20.945603391111042 0 0 1 0
108 1 0 12.983162553833978 -19.266076067479755 0 1 0 0
628 1 0 19.241586354084415 -21.00254181670536 0 0 1 0
189 1 0 22.497948159576087 -21.406890551765187 0 0 0 0
66 1 0 27.22775855456209 -20.456112518192572 0 0 0 0
314 1 0 35.733755856111806 -19.52998391657895 0 0 0 0
115 1 0 39.469301563636776 -19.510614470310582 0 0 0 0
157 1 0 46.32403252046176 -21.52245505111788 0 -1 0 0
418 1 0 52.18353269485345 -19.085126238710814 0 0 0 0
139 1 0 57.387878498514425 -19.998037886757338 0 -1 0 0
256 1 0 66.539557472223 -20.611979243345672 0 -1 0 0
259 1 0 77.22125032469543 -21.001680390575405 0 -1 0 0
319 1 0 85.66694675486245 -18.522383687026114 0 0 0 0
37 1 0 88.94842408988454 -21.470994626936474 0 -1 0 0
5 1 0 94.0760267822874 -21.504127149669145 0 -1 0 0
137 1 0 -48.167587867197824 -16.968418316452677 0 0 0 0
298 1 0 -43.211550209993284 -15.5287264912104 0 1 0 0
35 1 0 -32.62920791129525 -15.17710819132587 0 0 0 0
505 1 0 6.705473770179166 -16.20155831476162 0 0 0 0
601 1 0 10.167852038584625 -17.159066876888904 0 0 1 0
715 1 0 15.37450816645704 -15.173939434692857 0 0 1 0
533 1 0 20.400981976939384 -17.04011715294579 0 0 0 0
188 1 0 24.441900872380444 -18.178020849830858 0 0 0 0
285 1 0 27.982055155188558 -15.106671681742922 0 0 0 0
736 1 0 33.25798200763808 -17.236698281142218 0 0 1 0
52 1 0 36.72591784937305 -15.283689104680695 0 0 0 0
130 1 0 45.500277270499076 -15.521285115357427 0 -1 0 0
30 1 0 47.896018390848944 -18.188395789531345 0 0 0 0
19 1 0 59.591370726592515 -17.426154811580744 0 -1 0 0
726 1 0 67.77196662335517 -15.991625577786513 0 0 1 0
310 1 0 71.86951210108852 -16.226447484945368 0 0 0 0
289 1 0 78.17295049653377 -17.74488357959291 0 -1 0 0
316 1 0 81.8459023640405 -16.36931626235101 0 0 0 0
122 1 0 95.67425170029794 -15.500482172286253 0 0 0 0
21 1 0 -30.23299426215947 -12.3824141347033 0 0 0 0
166 1 0 -17.434297527594026 -13.053523640638614 0 0 0 0
786 1 0 -9.10757648834269 -14.608261577500327 0 0 1 0
757 1 0 -3.9047027108078463 -13.33617939884337 0 0 1 0
277 1 0 5.195059230708325 -13.039292439158883 0 0 0 0
213 1 0 9.931804667509521 -13.612272640616762 0 0 0 0
181 1 0 22.226929619912994 -14.169856352101641 0 0 0 0
78 1 0 33.139010850911326 -13.555391952629959 0 0 0 0
772 1 0 42.20865645395299 -12.26871824619514 0 0 1 0
154 1 0 52.50896977780069 -12.18086537338962 0 -1 0 0
444 1 0 58.429355668265195 -11.861455881878715 0 0 0 0
202 1 0 61.87036432284271 -12.793784249524341 0 0 0 0
48 1 0 85.80400693671115 -15.033898325014524 0 -1 0 0
588 1 0 92.18925014670131 -12.424817503927567 0 -1 1 0
461 1 0 -46.28899319024191 -10.623319676737346 0 0 0 0
252 1 0 -42.44309094653903 -11.382482913855158 0 0 0 0
186 1 0 -37.66744665317285 -9.539907565362311 0 0 0 0
145 1 0 -33.71744539500412 -11.668577949652384 0 0 0 0
656 1 0 -23.913567386076764 -10.346570722330222 0 1 1 0
348 1 0 -16.56877321711974 -8.677505426802368 0 0 0 0
46 1 0 -6.913764222472992 -10.739077004809133 0 0 0 0
275 1 0 -0.5280220258134729 -8.798755653708268 0 0 0 0
292 1 0 17.0951831998325 -11.370397244512311 0 0 0 0
98 1 0 22.34455213285713 -9.879452220852821 0 0 0 0
272 1 0 38.202580002321554 -8.898948553536943 0 0 0 0
143 1 0 45.93879395805406 -8.960222698429984 0 -1 0 0
207 1 0 49.21728704788921 -9.963427169822246 0 0 0 0
734 1 0 70.24240248589238 -8.760904402806341 0 0 1 0
560 1 0 74.7607945898072 -9.40708244206398 0 -1 0 0
639 1 0 86.23509947954233 -8.582242341059708 0 0 0 0
701 1 0 89.46946622820784 -11.212314268768903 0 -1 1 0
452 1 0 91.4692927724992 -8.59232256970754 0 -1 0 0
574 1 0 95.19016341907144 -10.69467808492244 0 -1 1 0
585 1 0 -34.73921638376775 -7.808831112927663 0 0 1 0
441 1 0 -29.932223438085913 -7.791421509259316 0 1 0 0
162 1 0 -25.865632564658622 -5.38379237456801 0 0 0 0
262 1 0 -8.467798756124056 -7.220282268632897 0 0 0 0
397 1 0 2.070458089588323 -5.616420407763116 0 0 0 0
413 1 0 7.237204753452155 -8.356958478278049 0 0 0 0
190 1 0 17.267917438098785 -7.666289301545796 0 0 0 0
784 1 0 14.479881699947638 -5.392627005027637 0 0 0 0
540 1 0 25.352693047315398 -6.6903387217300425 0 0 0 0
497 1 0 43.00691523062679 -6.111072361177558 0 0 0 0
442 1 0 49.98254753753466 -7.036204785843215 0 0 0 0
65 1 0 55.29441265328636 -8.147398563468785 0 -1 0 0
17 1 0 66.53710029707601 -7.540412082832445 0 -1 0 0
404 1 0 72.30001257235949 -5.43502148240029 0 0 0 0
666 1 0 78.18314443991846 -6.696936436292719 0 0 0 0
368 1 0 -37.69625007848881 -3.6005503716707437 0 0 0 0
176 1 0 -14.806593507564786 -4.216066875104282 0 0 0 0
63 1 0 -3.4265487966047172 -4.575310612418041 0 0 0 0
344 1 0 0.9644697606803904 -2.388374015749421 0 1 0 0
304 1 0 10.598086931429203 -2.996107760298574 0 0 0 0
23 1 0 16.12947988210461 -2.1520770073068283 0 0 0 0
729 1 0 19.98707152941266 -2.8970998660549196 0 0 1 0
355 1 0 25.61154289497388 -2.65968785392819 0 0 0 0
610 1 0 30.326639273363874 -5.06761776351713 0 0 1 0
606 1 0 33.00644987975669 -3.119776275229195 0 0 1 0
53 1 0 46.94246509718891 -3.37848110651775 0 0 0 0
178 1 0 59.75566350291965 -5.197758243426294 0 0 0 0
435 1 0 57.22705874115215 -2.29786862100829 0 0 0 0
412 1 0 68.86455298104788 -2.0574905251579403 0 0 0 0
554 1 0 87.00490068374408 -3.586225991053344 0 0 0 0
725 1 0 90.79116977570432 -4.544131433093817 0 -1 1 0
7 1 0 -48.69000573354102 1.0491365888410245 0 0 0 0
39 1 0 -45.10345314400809 -1.2266057897759743 0 0 0 0
83 1 0 -41.31531713396806 -0.3293930916946682 0 1 0 0
129 1 0 -35.563969777351176 -1.1317291258397095 0 1 0 0
22 1 0 -29.368243085053166 -0.4408764786609536 0 0 0 0
45 1 0 -19.704544004093766 -0.48763717286954406 0 0 0 0
283 1 0 -10.749927970249104 -1.0516718987633336 0 0 0 0
731 1 0 -3.1110275678068096 -0.7924787983518327 0 0 1 0
621 1 0 37.13811465552304 -1.9243557846571393 0 0 1 0
101 1 0 40.58076384394107 -1.705568654560768 0 0 0 0
25 1 0 43.640942771219336 -0.11920120647303391 0 0 0 0
222 1 0 54.13392219954793 0.20941033486232422 0 0 0 0
350 1 0 74.29054933349587 -0.9558402585322374 0 -1 0 0
204 1 0 79.10712762871128 -0.7543097771725056 0 0 0 0
446 1 0 86.09498730082053 0.694100461263435 0 0 0 0
556 1 0 92.56969832087215 -1.116943253150654 0 0 0 0
320 1 0 -43.63129172004971 2.092606098565907 0 1 0 0
559 1 0 -22.123598997859748 4.147058681642626 0 1 0 0
291 1 0 -14.095929468588835 1.5800856006324393 0 0 0 0
739 1 0 -7.227918046231084 3.5187095327217914 0 0 1 0
514 1 0 6.328992647486004 3.3462067026061306 0 0 0 0
82 1 0 11.38141544514025 2.140345559534311 0 0 0 0
483 1 0 16.32819910902912 2.6766977715506797 0 0 0 0
388 1 0 20.587779639055857 2.3969177751619233 0 0 0 0
598 1 0 28.49163214473848 3.538164327210593 0 0 1 0
422 1 0 32.47736262560947 2.659719263762631 0 0 0 0
196 1 0 39.864028558460205 2.9229557856506463 0 0 0 0
765 1 0 47.530218166821236 2.8107834712677557 0 0 1 0
288 1 0 55.08905620806009 4.039152249616438 0 0 0 0
325 1 0 57.926629220738896 1.758837630538664 0 0 0 0
192 1 0 62.12363777083665 2.667663566170292 0 0 0 0
553 1 0 68.43028772764659 1.7087115089565998 0 0 0 0
450 1 0 79.4551246625252 4.074294846726204 0 0 0 0
679 1 0 -50.45216896584376 5.808624422093721 0 1 0 0
439 1 0 -45.532187830333214 4.964602016284451 0 1 0 0
745 1 0 -41.292968854131196 5.158663258569198 0 0 1 0
358 1 0 -37.48962740124941 5.340901635113249 0 0 0 0
149 1 0 -25.05603818767323 6.26324846108514 0 0 0 0
389 1 0 -19.163379613674838 6.921877707201472 0 0 0 0
335 1 0 -10.785988376144202 6.440236065335903 0 1 0 0
555 1 0 -0.5139176329382741 4.6582547195476245 0 0 0 0
70 1 0 9.011357328318304 5.326480764907093 0 0 0 0
60 1 0 17.09713285161441 6.262752793042763 0 0 0 0
278 1 0 20.112251798892963 7.0168255893877305 0 0 0 0
206 1 0 25.18379796499899 4.737205478639227 0 0 0 0
210 1 0 43.70912760769546 4.517905826039311 0 0 0 0
484 1 0 46.60339782347335 6.113094533968363 0 0 0 0
299 1 0 49.815994381989256 6.436910943332399 0 0 0 0
302 1 0 66.02560924155635 4.745285398316549 0 0 0 0
443 1 0 63.45023460903961 7.109269295341786 0 0 0 0
467 1 0 73.29975592843464 6.648257533963785 0 0 0 0
524 1 0 81.6485439049508 7.19816513209444 0 0 0 0
253 1 0 85.52920875001676 5.51621325283652 0 -1 0 0
200 1 0 91.96568212990545 5.50470122972991 0 0 0 0
183 1 0 -45.08841090998064 10.956163762128709 0 1 0 0
20 1 0 -32.38759482505107 9.459030147054001 0 0 0 0
273 1 0 -22.702199200134288 8.183965223746357 0 0 0 0
624 1 0 -13.34610420695967 10.398502336217705 0 1 1 0
708 1 0 -10.3541232605902 9.578988746748742 0 0 1 0
421 1 0 -7.578895109928974 7.843924201444317 0 1 0 0
360 1 0 -3.6237232581216765 10.217870221784334 0 0 0 0
529 1 0 -0.5250403134832576 8.464005532618797 0 0 0 0
305 1 0 13.052788784936418 8.128439513121327 0 0 0 0
62 1 0 17.52525203027536 9.859500828445318 0 0 0 0
613 1 0 27.33915054064999 8.269074819997131 0 0 0 0
201 1 0 40.96267677739286 8.351318499937936 0 0 0 0
760 1 0 54.05488111179812 8.19710396059817 0 0 0 0
233 1 0 57.28759427056907 8.453047123008274 0 0 0 0
550 1 0 69.672342282608 7.845510936778536 0 0 0 0
730 1 0 76.17583772950312 8.250366985670562 0 0 1 0
203 1 0 84.9005491861189 10.581458120526092 0 0 0 0
423 1 0 92.8993062886411 9.55696620930995 0 0 0 0
625 1 0 -50.260894322923896 13.843413151750681 0 0 1 0
144 1 0 -46.50071448058786 14.257476390227838 0 0 0 0
778 1 0 -40.06982320339142 11.745675794174813 0 1 1 0
169 1 0 -34.793685481002534 13.242686322660445 0 0 0 0
569 1 0 -27.05160931275024 12.794295039518847 0 0 0 0
271 1 0 -22.469897116063763 13.004124893986365 0 0 0 0
673 1 0 -19.50701104172349 11.548962616554887 0 1 0 0
474 1 0 -10.212086145868419 13.255279803949534 0 0 0 0
268 1 0 -4.939765396273729 13.292855711097397 0 0 0 0
577 1 0 0.8595009216052782 11.940953127214854 0 0 1 0
177 1 0 14.461676977607842 11.341988743482839 0 0 0 0
209 1 0 20.063397359177905 13.542493240875464 0 0 0 0
36 1 0 23.24611346853528 12.760395291256751 0 0 0 0
766 1 0 33.21772422146677 11.138157849575638 0 0 1 0
74 1 0 38.108895849431754 12.625782012747434 0 0 0 0
382 1 0 41.88799405934479 12.183987673465765 0 0 0 0
531 1 0 46.47802214393958 11.74354948452605 0 0 0 0
750 1 0 68.1886954418292 13.139683392377762 0 0 0 0
541 1 0 89.26938991941066 14.288244413111329 0 0 0 0
409 1 0 -44.16458865491782 16.54927847030771 0 1 0 0
525 1 0 -17.13158590962582 16.537148811108707 0 1 0 0
384 1 0 -7.6404092245639985 16.299186983280528 0 0 0 0
293 1 0 -3.1608510579538773 16.963014909152573 0 0 0 0
91 1 0 0.704363507936246 16.494506763668422 0 0 -1 0
40 1 0 4.5981401923022 17.38327577605297 0 0 0 0
174 1 0 9.885523060754931 14.460676099427218 0 0 0 0
114 1 0 18.43673706008193 17.07429990845683 0 0 0 0
80 1 0 23.572891555112083 17.173450534720054 0 0 0 0
184 1 0 29.728826522005118 15.352964238254465 0 0 0 0
77 1 0 34.19399082990161 14.863233031258103 0 0 0 0
744 1 0 40.86964145918154 15.327752125847631 0 0 1 0
539 1 0 46.263973800105354 15.786340910552761 0 0 0 0
175 1 0 51.9880721124685 14.827026206864096 0 -1 0 0
354 1 0 56.92995240195894 14.542510032310242 0 -1 0 0
552 1 0 65.04597241825068 16.03873420386457 0 0 0 0
81 1 0 79.91538205455873 15.582007812699008 0 0 0 0
38 1 0 93.12311418962929 17.14106809871823 0 -1 0 0
410 1 0 -49.31843003334923 18.884734422995994 0 1 0 0
306 1 0 -23.999809189948653 18.60162179390796 0 1 0 0
426 1 0 -18.176149459882527 19.764749921649784 0 1 0 0
261 1 0 -11.850618175228275 17.96990687495041 0 0 0 0
738 1 0 8.141269312159054 19.835029933477617 0 0 1 0
645 1 0 17.46621227724908 20.388993249023844 0 0 0 0
28 1 0 32.74329690223922 17.978107164512654 0 0 0 0
266 1 0 38.19313000667661 19.57543241425467 0 0 0 0
633 1 0 51.017085668752465 19.398300772529698 0 0 0 0
396 1 0 56.06131818514781 19.99037423080137 0 0 0 0
546 1 0 74.71719763833829 18.531571165828197 0 0 0 0
657 1 0 78.65455540235027 18.457989057475363 0 0 0 0
311 1 0 84.60587473295692 19.541139735637113 0 0 0 0
240 1 0 -47.76842488813199 22.348869152894707 0 0 0 0
337 1 0 -38.19426523534308 22.17680045823812 0 1 0 0
246 1 0 -34.61109576515347 21.77718677818684 0 0 0 0
249 1 0 -23.9180941196505 21.93520909536951 0 0 0 0
173 1 0 -13.718619530649883 23.571773237036552 0 0 0 0
279 1 0 -10.052662423545272 23.794425420688917 0 0 0 0
518 1 0 -7.023540012503821 22.577105453215584 0 0 0 0
218 1 0 -3.8394523169497443 23.245152693464867 0 0 0 0
400 1 0 2.0770232567751172 23.32068417571975 0 0 0 0
580 1 0 10.828656820760154 22.377443714557096 0 0 0 0
390 1 0 14.385116009688597 22.08900202895291 0 0 0 0
185 1 0 20.903268780488528 22.323501196582235 0 0 0 0
558 1 0 28.363321553290387 24.034865704129665 0 0 0 0
287 1 0 32.057732092701166 22.33538912445452 0 0 0 0
424 1 0 36.091384910544996 21.998194739328966 0 0 0 0
416 1 0 40.50164373863287 22.33988052905159 0 0 0 0
626 1 0 57.88259342067573 24.07385611322991 0 0 0 0
654 1 0 61.25832437981033 21.428087210827037 0 0 0 0
440 1 0 73.68078210419601 22.066936342015044 0 0 0 0
179 1 0 77.09722470073983 23.095886463933745 0 -1 0 0
635 1 0 82.23302862033569 22.542904316319255 0 0 0 0
783 1 0 89.2139088638725 21.49843585667013 0 0 0 0
158 1 0 -50.51042641181953 24.405851698774388 0 0 0 0
578 1 0 -47.817637615125186 27.3141447040906 0 0 0 0
313 1 0 -37.67008964886109 26.560992509017286 0 1 0 0
415 1 0 -20.385871888564505 27.361500349742496 0 1 0 0
366 1 0 -5.020726599112567 26.514412092001795 0 0 0 0
403 1 0 43.091824298180676 24.289483835680947 0 0 0 0
326 1 0 53.35329204086458 25.14028097393774 0 0 0 0
475 1 0 63.19498215082473 25.14158677341039 0 0 0 0
315 1 0 69.7115880403127 24.378431099723322 0 0 0 0
295 1 0 78.6028872348885 26.24671457610404 0 0 0 0
269 1 0 -41.52238865603182 28.781888892152406 0 0 0 0
378 1 0 -28.66165860729739 28.05394777917708 0 0 0 0
312 1 0 -14.59883948317865 27.953627595806815 0 1 0 0
459 1 0 -1.2975973482172158 27.588174863504808 0 0 0 0
495 1 0 2.1681161429555984 27.85184020817727 0 0 0 0
220 1 0 10.558813914647285 27.966534768451083 0 1 -1 0
686 1 0 8.077880069198743 30.51658911586742 0 1 0 0
528 1 0 20.326006030125345 30.0128057967198 0 0 0 0
773 1 0 31.491050280219245 27.746203112534285 0 0 0 0
637 1 0 42.501521991288094 28.94186658358368 0 0 0 0
515 1 0 49.741778791777044 30.323880574954018 0 0 0 0
51 1 0 62.371107274231946 28.366326055729377 0 0 0 0
197 1 0 66.11141786358225 29.82426204914337 0 0 0 0
408 1 0 70.08182974955966 29.927783440461884 0 0 0 0
104 1 0 76.73150923835833 29.388873679639598 0 0 -1 0
56 1 0 92.16826907237547 27.410110289305035 0 0 -1 0
168 1 0 95.82463133376227 28.88949487441702 0 -1 0 0
372 1 0 -48.277269858054524 31.27393369239809 0 0 0 0
208 1 0 -30.88637517240694 31.935117706393243 0 0 0 0
398 1 0 -20.62833761009534 32.11200404051521 0 0 0 0
490 1 0 -16.110092303174188 32.50660993564144 0 0 0 0
466 1 0 -10.458442815132631 30.928705490649666 0 0 0 0
714 1 0 -3.5963630401933377 33.482534844311864 0 0 0 0
265 1 0 11.48413891169402 33.831828460520434 0 0 0 0
182 1 0 16.99089301024577 31.00499632306452 0 0 0 0
527 1 0 19.38718735657237 33.59215170959339 0 0 0 0
506 1 0 24.094581444409577 30.768343379604804 0 0 0 0
615 1 0 28.31343499165899 31.074977771987083 0 0 0 0
297 1 0 35.00269889514186 32.200742472430875 0 0 0 0
394 1 0 41.06014374162726 33.27062786257249 0 0 0 0
488 1 0 45.028810663546295 32.08685718081341 0 0 0 0
534 1 0 51.26929702108466 33.38326243377907 0 0 0 0
707 1 0 54.9230053144474 32.06367230015203 0 -1 0 0
641 1 0 61.92504442052867 32.64030287390336 0 0 0 0
492 1 0 82.56799007647217 31.374877491719246 0 0 0 0
537 1 0 93.87885066235233 32.10449268654964 0 0 0 0
340 1 0 -49.6701813048881 34.16426330149833 0 1 0 0
352 1 0 -40.57566444994156 36.00111664104679 0 0 0 0
530 1 0 -35.48832132983324 35.63554862989682 0 0 0 0
377 1 0 -30.49257058529583 36.067670764401 0 0 0 0
451 1 0 -25.213183420340393 35.66726300181379 0 1 0 0
712 1 0 -14.065675494933634 35.39830357517852 0 0 0 0
684 1 0 3.805692943340496 36.874516011707 0 1 0 0
381 1 0 7.267233925702137 36.17086994895784 0 0 0 0
521 1 0 14.943293117380664 36.976417030624695 0 0 0 0
504 1 0 24.021836900777334 36.71673584774315 0 0 0 0
180 1 0 28.02937765819971 36.0019381077431 0 0 0 0
661 1 0 33.27823043314561 35.058872414493024 0 0 0 0
544 1 0 74.45059605885498 34.75443546464095 0 0 0 0
420 1 0 77.93243384033691 36.25893976028849 0 0 0 0
517 1 0 93.47412928651778 35.809774624434425 0 0 0 0
383 1 0 -50.83939952610745 39.69316977261824 0 0 0 0
563 1 0 -26.013912249958153 38.78625287710551 0 0 0 0
793 1 0 -21.502287210618068 38.49212337222912 0 1 0 0
549 1 0 -17.55987298651783 39.18002412671907 0 1 0 0
274 1 0 -5.983907354923019 37.92436245595816 0 0 0 0
469 1 0 0.7518311631585882 39.14834334835218 0 0 0 0
740 1 0 5.976343637998214 39.79794024635794 0 0 1 0
150 1 0 9.94863355365234 37.87765212785242 0 0 -1 0
251 1 0 19.856184858450547 38.95254783584579 0 0 0 0
719 1 0 41.79604200334714 40.330610388986955 0 0 0 0
648 1 0 46.97374164913922 37.35622513803239 0 0 0 0
634 1 0 51.56550466523534 37.43846172986255 0 0 0 0
105 1 0 55.557225942894824 39.1024819091137 0 0 -1 0
32 1 0 58.66658631896836 40.10491271484644 0 -1 -1 0
116 1 0 63.17899883985291 39.82824176855974 0 0 -1 0
523 1 0 65.87832955949361 37.43794482241451 0 0 0 0
513 1 0 70.09248817486427 38.4367895211545 0 0 0 0
110 1 0 79.669470873858 39.15899025294037 0 0 -1 0
286 1 0 83.93139195895989 37.60141804194112 0 0 0 0
570 1 0 -44.46841850923783 41.888790476338755 0 0 0 0
478 1 0 -34.35428620973796 41.60775385894503 0 0 0 0
477 1 0 -29.68719078137824 42.642273490280814 0 0 0 0
294 1 0 -19.67564933860262 41.44392003609697 0 0 0 0
334 1 0 -16.39655369077458 42.97524563646157 0 1 0 0
284 1 0 -5.551556948566199 41.4553323251237 0 0 0 0
462 1 0 -1.5129050207259784 43.58082000084847 0 0 0 0
242 1 0 1.7451013573238154 42.26866307798459 0 0 0 0
510 1 0 10.869721457096041 42.43550575662764 0 0 0 0
364 1 0 16.3192235885944 41.74950050996715 0 0 0 0
199 1 0 23.985187344364515 41.767259763338195 0 0 0 0
697 1 0 27.68353538728889 43.59424677452757 0 0 0 0
498 1 0 33.004389546247346 42.05963178534038 0 0 0 0
782 1 0 37.5284010923914 41.569328604811325 0 0 0 0
642 1 0 49.84290792901047 40.8305330415592 0 0 0 0
428 1 0 55.18437520732602 42.173317001060774 0 0 0 0
669 1 0 63.16958618765857 43.370514455201196 0 0 0 0
538 1 0 71.8990090429282 41.92660050326527 0 0 0 0
434 1 0 82.72056012434368 42.8519743581633 0 0 0 0
640 1 0 86.8777915688566 42.531442934705524 0 0 0 0
430 1 0 90.89574552969192 41.12613945945317 0 0 0 0
448 1 0 -32.81997545993477 46.42035311035964 0 1 0 0
557 1 0 -29.192238459421652 46.8885414163559 0 1 0 0
359 1 0 -25.511127494137728 44.55892386058765 0 0 0 0
362 1 0 -21.064566126447602 45.72093908155056 0 0 0 0
512 1 0 -6.964054154725179 44.64668658568518 0 0 0 0
795 1 0 -3.3313496456918186 46.78000411745593 0 1 0 0
453 1 0 8.901469492222352 46.555810361909096 0 0 0 0
479 1 0 16.490251108330867 45.57802161640817 0 0 0 0
547 1 0 23.305976511552945 45.885235753806604 0 0 0 0
72 1 0 36.42709296337352 45.07696207046479 0 0 -1 0
519 1 0 44.498462628104875 45.254236725969676 0 0 0 0
631 1 0 49.173128239354426 46.44871248393931 0 0 0 0
371 1 0 55.45097464001749 46.28457712439316 0 0 0 0
636 1 0 60.082158770197125 46.911809487546954 0 0 0 0
674 1 0 64.30253825818204 46.46934325198566 0 0 0 0
646 1 0 67.52745191739409 45.104480905410014 0 0 0 0
551 1 0 74.85633907491909 46.8945986001723 0 0 0 0
414 1 0 77.17494455456084 44.655539228474915 0 0 0 0
703 1 0 81.46382592922733 46.775113784817044 0 -1 0 0
356 1 0 86.23515284378827 46.14840811260204 0 -1 0 0
470 1 0 -49.635112746976745 48.449575027147546 0 0 0 0
449 1 0 -39.43147748708321 48.36038586090247 0 1 0 0
349 1 0 -25.601768788583744 49.84983989884411 0 0 0 0
365 1 0 -19.384588342678477 49.21291791774464 0 0 0 0
161 1 0 -14.592471099084973 47.664614390867584 0 0 -1 0
564 1 0 -5.94603291479889 49.587871389683315 0 0 0 0
500 1 0 2.924060107990639 48.88295610223383 0 0 0 0
438 1 0 12.66202753521354 47.405086321671305 0 1 0 0
496 1 0 20.011090035810977 48.08666854161085 0 0 0 0
683 1 0 25.629585104170957 48.87615439255736 0 1 0 0
499 1 0 28.384990229918476 47.03639097993922 0 0 0 0
73 1 0 31.584259730236155 48.68921837508738 0 0 -1 0
644 1 0 35.461348407428616 48.897823881148234 0 0 0 0
532 1 0 41.33817866219614 48.07304928702209 0 0 0 0
787 1 0 51.00843902035335 49.70462771599186 0 0 0 0
511 1 0 66.34376759770285 49.777994881310235 0 0 0 0
308 1 0 70.23935379387822 47.26768547358779 0 0 0 0
463 1 0 73.65493768245248 50.22406235736039 0 -1 0 0
427 1 0 83.93873212294655 49.84533117583164 0 0 0 0
647 1 0 93.58568665615914 47.689578062789245 0 0 0 0
407 1 0 -37.188397462522595 51.116511201742554 0 1 0 0
27 1 0 -29.654996534255275 52.17453380568725 0 0 -1 0
471 1 0 -19.212373202013573 52.374267002666826 0 0 0 0
447 1 0 -11.812789772866026 53.20123974652472 0 1 0 0
562 1 0 8.379419172396348 50.3222481913488 0 0 0 0
127 1 0 23.459216600433937 53.335462999749666 0 0 -1 0
724 1 0 28.526297194570784 53.310158858289235 0 0 0 0