# System definition
read_data graphene_single_layer_x-45_y-45_795_C.data
Reading data file ...
  orthogonal box = (-51 -51 -51) to (96 96 51)
  1 by 1 by 1 MPI processor grid
  reading atoms ...
  795 atoms
  read_data CPU = 0.014 seconds
pair_style lj/cut 6
pair_coeff      1 1 0.066047 3.4

# Virtual force wall to keep the cylinder shape
#region myCylinder cylinder z 0. 0. 20.3 -22.079997 505.920003 units box
#fix wall all wall/region myCylinder lj93 1.0 1.0 2.5

# Minimization
timestep 0.25
thermo 100
thermo_style custom step temp press vol lx density pe etotal
dump 2 all custom 1000 graphene_single_layer_LJ_795C_after_temp_70K.lammpstrj id type x y z
min_style cg
minimize 1.0e-6 1.0e-6 100 1000
WARNING: Using 'neigh_modify every 1 delay 0 check yes' setting during minimization (../min.cpp:187)
  generated 0 of 0 mixed pair_coeff terms from geometric mixing rule
Neighbor list info ...
  update every 1 steps, delay 0 steps, check yes
  max neighbors/atom: 10000, page size: 100000
  master list distance cutoff = 6.4
  ghost atom cutoff = 6.4
  binsize = 3.2, bins = 46 46 32
  1 neighbor lists, perpetual/occasional/extra = 1 0 0
  (1) pair lj/cut, perpetual
      attributes: half, newton on
      pair build: half/bin/atomonly/newton
      stencil: half/bin/3d
      bin: standard
Per MPI rank memory allocation (min/avg/max) = 5.96 | 5.96 | 5.96 Mbytes
Step Temp Press Volume Lx Density PotEng TotEng 
       0            0    1335313.5      2204118          147  0.007193656     10699602     10699602 
     100            0     61841.43      2204118          147  0.007193656    488621.59    488621.59 
Loop time of 0.0655773 on 1 procs for 100 steps with 795 atoms

100.0% CPU use with 1 MPI tasks x no OpenMP threads

Minimization stats:
  Stopping criterion = max iterations
  Energy initial, next-to-last, final = 
      10699602.3573369   495470.853828546   488621.590421788
  Force two-norm initial, final = 694694.42 29375.63
  Force max component initial, final = 79169.705 9280.0147
  Final line search alpha, max atom move = 3.8811533e-05 0.36017159
  Iterations, force evaluations = 100 117

MPI task timing breakdown:
Section |  min time  |  avg time  |  max time  |%varavg| %total
---------------------------------------------------------------
Pair    | 0.043366   | 0.043366   | 0.043366   |   0.0 | 66.13
Neigh   | 0.017852   | 0.017852   | 0.017852   |   0.0 | 27.22
Comm    | 0.0005299  | 0.0005299  | 0.0005299  |   0.0 |  0.81
Output  | 7.45e-05   | 7.45e-05   | 7.45e-05   |   0.0 |  0.11
Modify  | 0          | 0          | 0          |   0.0 |  0.00
Other   |            | 0.003756   |            |       |  5.73

Nlocal:            795 ave         795 max         795 min
Histogram: 1 0 0 0 0 0 0 0 0 0
Nghost:              0 ave           0 max           0 min
Histogram: 1 0 0 0 0 0 0 0 0 0
Neighs:          13073 ave       13073 max       13073 min
Histogram: 1 0 0 0 0 0 0 0 0 0

Total # of neighbors = 13073
Ave neighs/atom = 16.444025
Neighbor list builds = 35
Dangerous builds = 0
#timestep 0.25
fix 1 all nvt temp 70.0 70.0 $(100.0*dt)
fix 1 all nvt temp 70.0 70.0 25
run 400000
  generated 0 of 0 mixed pair_coeff terms from geometric mixing rule
Per MPI rank memory allocation (min/avg/max) = 4.835 | 4.835 | 4.835 Mbytes
Step Temp Press Volume Lx Density PotEng TotEng 
     100            0     61841.43      2204118          147  0.007193656    488621.59    488621.59 
     200    6449.9281    30997.072      2204118          147  0.007193656    240519.22    255784.67 
     300    3143.4365    20160.464      2204118          147  0.007193656    155863.29    163303.06 
     400    2009.4943    14668.954      2204118          147  0.007193656     112871.6     117627.6 
     500    1382.0162    11400.601      2204118          147  0.007193656    87333.089    90603.994 
     600    1036.3179     9261.875      2204118          147  0.007193656     70639.06    73091.779 
     700     815.7684    7740.1043      2204118          147  0.007193656    58778.817    60709.548 
     800    662.74209    6605.6724      2204118          147  0.007193656    49952.391    51520.944 
     900    552.08767    5730.1823      2204118          147  0.007193656    43151.835    44458.496 
    1000    468.78689    5035.8182      2204118          147  0.007193656    37766.979    38876.486 
    1100    404.22889    4473.5369      2204118          147  0.007193656    33413.569    34370.283 
    1200    353.27099    4010.0344      2204118          147  0.007193656      29830.9    30667.009 
    1300    312.39704    3621.9852      2204118          147  0.007193656    26836.276    27575.645 
    1400    279.06091    3292.6782      2204118          147  0.007193656    24298.949     24959.42 
    1500    251.44808    3010.0503      2204118          147  0.007193656    22124.809    22719.927 
    1600    228.32672    2765.0715      2204118          147  0.007193656    20243.329    20783.724 
    1700    208.76288    2550.8583      2204118          147  0.007193656    18600.763    19094.855 
    1800    192.05733    2362.1007      2204118          147  0.007193656    17155.724    17610.278 
    1900     177.6823    2194.6229      2204118          147  0.007193656    15875.633    16296.165 
    2000    165.23231     2045.103      2204118          147  0.007193656    14734.626    15125.692 
    2100    154.39599     1910.854      2204118          147  0.007193656    13711.782      14077.2 
    2200    144.91453    1789.6785      2204118          147  0.007193656    12789.978    13132.956 
    2300    136.53856    1679.8027      2204118          147  0.007193656    11955.416     12278.57 
    2400    129.07444    1579.8128      2204118          147  0.007193656    11197.168    11502.656 
    2500    122.41755    1488.5211      2204118          147  0.007193656     10506.03    10795.764 
    2600    116.48415    1404.8968      2204118          147  0.007193656    9873.9792     10149.67 
    2700    111.19108    1328.0493      2204118          147  0.007193656    9294.1025    9557.2654 
    2800    106.47222    1257.2168      2204118          147  0.007193656    8760.5317    9012.5262 
    2900    102.28952    1191.7095      2204118          147  0.007193656    8267.8632    8509.9583 
    3000    98.572884    1130.9371      2204118          147  0.007193656    7811.5853     8044.884 
    3100    95.243759    1074.3993      2204118          147  0.007193656    7387.7882    7613.2076 
    3200    92.260151    1021.6787      2204118          147  0.007193656    6993.2639    7211.6218 
    3300    89.590811    972.40798      2204118          147  0.007193656    6625.1824    6837.2226 
    3400    87.205033    926.26268      2204118          147  0.007193656    6281.0323    6487.4259 
    3500    85.074299    882.95836      2204118          147  0.007193656    5958.6292    6159.9799 
    3600    83.174423     842.2414      2204118          147  0.007193656    5656.0044    5852.8585 
    3700    81.484497    803.89403      2204118          147  0.007193656     5371.532    5564.3866 
    3800    79.983134    767.70778      2204118          147  0.007193656    5103.5198    5292.8209 
    3900    78.651874    733.52015      2204118          147  0.007193656    4850.8365    5036.9869 
    4000    77.473192    701.16584      2204118          147  0.007193656    4612.1296    4795.4903 
    4100    76.431614    670.50947      2204118          147  0.007193656     4386.391    4567.2865 
    4200    75.513468    641.42581      2204118          147  0.007193656    4172.6487    4351.3712 
    4300    74.705855    613.80151      2204118          147  0.007193656     3970.014     4146.825 
    4400     73.99763     587.5414      2204118          147  0.007193656    3777.8008    3952.9356 
    4500    73.378039    562.54621      2204118          147  0.007193656    3595.1697    3768.8382 
    4600    72.836892    538.74432      2204118          147  0.007193656    3421.6633     3594.051 
    4700    72.366397    516.05512      2204118          147  0.007193656    3256.6069     3427.881 
    4800    71.958157    494.41424      2204118          147  0.007193656    3099.5384    3269.8463 
    4900    71.604638    473.75506      2204118          147  0.007193656    2949.9056    3119.3768 
    5000    71.299754    454.02727      2204118          147  0.007193656    2807.3805    2976.1302 
    5100    71.036984    435.17304      2204118          147  0.007193656    2671.4691    2839.5968 
    5200     70.81087    417.14593      2204118          147  0.007193656    2541.8279    2709.4205 
    5300    70.615765    399.89707      2204118          147  0.007193656    2418.0372     2585.168 
    5400    70.448156    383.38977      2204118          147  0.007193656     2299.847    2466.5811 
    5500    70.305336    367.59598      2204118          147  0.007193656    2187.1229     2353.519 
    5600    70.183909    352.47036      2204118          147  0.007193656    2079.4207    2245.5294 
    5700    70.080954     337.9836      2204118          147  0.007193656    1976.5424    2142.4074 
    5800    69.995001    324.10573      2204118          147  0.007193656    1878.2606    2043.9222 
    5900    69.922639    310.80027      2204118          147  0.007193656    1784.2202    1949.7105 
    6000    69.857495    298.05767      2204118          147  0.007193656    1694.4845    1859.8207 
    6100     69.79503    285.85534      2204118          147  0.007193656    1608.8544    1774.0427 
    6200    69.732645    274.17743      2204118          147  0.007193656    1527.1969    1692.2375 
    6300    69.675341    262.99911      2204118          147  0.007193656    1449.2072    1614.1122 
    6400    69.634087    252.31778      2204118          147  0.007193656    1374.9657    1539.7731 
    6500    69.621011    242.11223      2204118          147  0.007193656    1304.3074    1469.0839 
    6600    69.663578    232.33968      2204118          147  0.007193656    1236.8842    1401.7614 
    6700    69.724524    222.95045      2204118          147  0.007193656    1172.3186    1337.3401 
    6800    69.704588    213.93164      2204118          147  0.007193656    1110.6222    1275.5964 
    6900    69.620506    205.27942      2204118          147  0.007193656    1051.7111    1216.4864 
    7000    69.588554    196.98034      2204118          147  0.007193656     995.3283    1160.0279 
    7100    69.640068     189.0242      2204118          147  0.007193656    941.44151    1106.2631 
    7200    69.688113    181.38317      2204118          147  0.007193656    889.83217    1054.7674 
    7300    69.671033     174.0501      2204118          147  0.007193656    840.55288    1005.4477 
    7400    69.633697    167.01221      2204118          147  0.007193656     793.4509    958.25737 
    7500    69.642932    160.25991      2204118          147  0.007193656    748.42235    913.25068 
    7600    69.683517      153.785      2204118          147  0.007193656    705.45697    870.38135 
    7700    69.697938    147.56927      2204118          147  0.007193656    664.39492    829.35344 
    7800    69.680134    141.59984      2204118          147  0.007193656    625.11109    790.02746 
    7900    69.675839    135.86444      2204118          147  0.007193656    587.45883    752.36504 
    8000    69.704189    130.36173      2204118          147  0.007193656    551.50461    716.47792 
    8100    69.730196    125.07635      2204118          147  0.007193656    517.11327    682.14813 
    8200    69.726709     119.9988      2204118          147  0.007193656    484.22212    649.24873 
    8300    69.716014    115.12046      2204118          147  0.007193656    452.73855    617.73985 
    8400    69.729625    110.44038      2204118          147  0.007193656    422.69991    587.73342 
    8500    69.757748    105.94677      2204118          147  0.007193656    393.99843     559.0985 
    8600    69.768018    101.63004      2204118          147  0.007193656    366.56952     531.6939 
    8700    69.759739    97.485537      2204118          147  0.007193656    340.39611    505.50089 
    8800    69.761867     93.50217      2204118          147  0.007193656    315.33253    480.44235 
    8900    69.783379    89.675768      2204118          147  0.007193656    291.36863    456.52936 
    9000    69.801396     85.99857      2204118          147  0.007193656    268.45476    433.65814 
    9100    69.799987    82.470185      2204118          147  0.007193656    246.64921    411.84925 
    9200    69.795709    79.081294      2204118          147  0.007193656    225.83348     391.0234 
    9300    69.808249    75.823456      2204118          147  0.007193656    205.90445    371.12404 
    9400    69.828519    72.700137      2204118          147  0.007193656    186.97971    352.24728 
    9500    69.835004     69.69957      2204118          147  0.007193656    168.92758    334.21049 
    9600    69.829449    66.815138      2204118          147  0.007193656    151.67892    316.94869 
    9700    69.832404    64.045171      2204118          147  0.007193656    135.23331    300.51007 
    9800    69.849449    61.386597      2204118          147  0.007193656    119.58008    284.89719 
    9900    69.862508    58.836091      2204118          147  0.007193656    104.71946    270.06748 
   10000    69.860251    56.381594      2204118          147  0.007193656     90.49514    255.83781 
   10100    69.856195    54.027253      2204118          147  0.007193656    76.998613    242.33168 
   10200    69.866469    51.769989      2204118          147  0.007193656    64.200493    229.55788 
   10300    69.882077    49.599094      2204118          147  0.007193656    51.963851    217.35818 
   10400    69.884655    47.511568      2204118          147  0.007193656    40.283258    205.68369 
   10500    69.878726    45.513714      2204118          147  0.007193656    29.287267    194.67366 
   10600    69.882484    43.596062      2204118          147  0.007193656    18.833478    184.22877 
   10700    69.897863    41.755137      2204118          147  0.007193656    8.8958216    174.32751 
   10800     69.90835    39.993076      2204118          147  0.007193656  -0.44328327    165.01323 
   10900    69.905734    38.302005      2204118          147  0.007193656   -9.2769233     156.1734 
   11000     69.90303    36.682965      2204118          147  0.007193656   -17.569584    147.87433 
   11100    69.911612    35.123602      2204118          147  0.007193656   -25.510789    139.95344 
   11200    69.922151     33.62079      2204118          147  0.007193656   -33.124541    132.36463 
   11300    69.923316    32.193185      2204118          147  0.007193656   -40.073428     125.4185 
   11400    69.919492     30.81696      2204118          147  0.007193656   -46.738236    118.74464 
   11500    69.922467    29.489974      2204118          147  0.007193656   -53.142624     112.3473 
   11600    69.932829    28.219661      2204118          147  0.007193656   -59.142709    106.37173 
   11700    69.938154     27.00857      2204118          147  0.007193656   -64.668077    100.85897 
   11800    69.935008    25.840917      2204118          147  0.007193656   -69.962262    95.557339 
   11900    69.933494    24.726015      2204118          147  0.007193656   -74.860756    90.655263 
   12000     69.94103    23.655112      2204118          147  0.007193656   -79.496129    86.037727 
   12100     69.94887    22.618873      2204118          147  0.007193656   -83.998363    81.554048 
   12200    69.948125    21.626908      2204118          147  0.007193656   -88.184893    77.365753 
   12300    69.943761    20.671442      2204118          147  0.007193656   -92.175284    73.365033 
   12400    69.947015    19.747938      2204118          147  0.007193656   -96.040145    69.507875 
   12500    69.955731     18.86755      2204118          147  0.007193656   -99.577671    65.990976 
   12600    69.959169    18.016583      2204118          147  0.007193656   -102.99348    62.583302 
   12700    69.955144    17.204777      2204118          147  0.007193656   -106.11121    59.456051 
   12800    69.953696    16.418127      2204118          147  0.007193656   -109.15975    56.404081 
   12900    69.960383    15.669855      2204118          147  0.007193656    -111.9112    53.668457 
   13000     69.96703    14.945617      2204118          147  0.007193656    -114.5859    51.009487 
   13100    69.964867    14.245978      2204118          147  0.007193656   -117.15665    48.433627 
   13200    69.960055    13.574794      2204118          147  0.007193656   -119.55403    46.024855 
   13300    69.963572    12.929958      2204118          147  0.007193656    -121.8117     43.77551 
   13400    69.971656    12.310289      2204118          147  0.007193656   -123.93587    41.670468 
   13500    69.973019    11.716309      2204118          147  0.007193656    -125.8993    39.710271 
   13600    69.967697    11.144069      2204118          147  0.007193656   -127.75896    37.838007 
   13700    69.966865    10.591176      2204118          147  0.007193656   -129.55487    36.040124 
   13800    69.973719    10.062008      2204118          147  0.007193656   -131.20756    34.403663 
   13900    69.979114    9.5566978      2204118          147  0.007193656    -132.6985    32.925486 
   14000     69.97635    9.0725053      2204118          147  0.007193656   -134.05969    31.557759 
   14100    69.972013    8.6048949      2204118          147  0.007193656   -135.36395    30.243233 
   14200    69.975298    8.1575715      2204118          147  0.007193656   -136.54897    29.065985 
   14300    69.982482    7.7290567      2204118          147  0.007193656   -137.62842    28.003545 
   14400    69.983348    7.3191273      2204118          147  0.007193656   -138.59066    27.043355 
   14500    69.978237    6.9240853      2204118          147  0.007193656   -139.49136     26.13055 
   14600    69.977309    6.5478899      2204118          147  0.007193656   -140.26709    25.352627 
   14700    69.983572    6.1880768      2204118          147  0.007193656   -140.95577     24.67877 
   14800    69.987678     5.841657      2204118          147  0.007193656    -141.5947     24.04956 
   14900     69.98387    5.5099311      2204118          147  0.007193656   -142.15327    23.481972 
   15000    69.979698    5.1938369      2204118          147  0.007193656   -142.61764    23.007737 
   15100    69.983453    4.8907037      2204118          147  0.007193656   -143.03359     22.60067 
   15200    69.990278     4.602179      2204118          147  0.007193656   -143.36309    22.287324 
   15300    69.990418    4.3255113      2204118          147  0.007193656   -143.63641    22.014336 
   15400    69.985644     4.061003      2204118          147  0.007193656   -143.84229    21.797152 
   15500     69.98542    3.8069727      2204118          147  0.007193656   -144.00997    21.628947 
   15600    69.991075    3.5646216      2204118          147  0.007193656   -144.11672    21.535576 
   15700    69.993427    3.3328786      2204118          147  0.007193656   -144.17199    21.485877 
   15800    69.988518    3.1115758      2204118          147  0.007193656   -144.17577    21.470474 
   15900    69.984773    2.9000637      2204118          147  0.007193656   -144.14543    21.491951 
   16000    69.988962    2.6999787      2204118          147  0.007193656   -144.05678    21.590522 
   16100    69.995193    2.5115808      2204118          147  0.007193656   -143.89619    21.765851 
   16200    69.994098    2.3313341      2204118          147  0.007193656   -143.70916    21.950294 
   16300    69.988905    2.1587859      2204118          147  0.007193656   -143.49963    22.147538 
   16400    69.989453    1.9949038      2204118          147  0.007193656   -143.25364    22.394822 
   16500    69.995836    1.8412731      2204118          147  0.007193656   -142.94018    22.723387 
   16600    69.997943    1.6935349      2204118          147  0.007193656   -142.62033    23.048223 
   16700    69.992502    1.5523523      2204118          147  0.007193656   -142.27799    23.377681 
   16800    69.989161    1.4189707      2204118          147  0.007193656   -141.89752    23.750244 
   16900    69.994397     1.292828      2204118          147  0.007193656   -141.48969    24.170467 
   17000    70.000328    1.1736152      2204118          147  0.007193656   -141.04871     24.62549 
   17100    69.997733    1.0600047      2204118          147  0.007193656   -140.58523    25.082831 
   17200     69.99162   0.95046574      2204118          147  0.007193656   -140.12646    25.527126 
   17300    69.992349   0.84800372      2204118          147  0.007193656   -139.63021    26.025109 
   17400    69.998754   0.75310207      2204118          147  0.007193656   -139.08811     26.58236 
   17500    69.999778    0.6617765      2204118          147  0.007193656   -138.55869    27.114202 
   17600    69.993477   0.57758772      2204118          147  0.007193656   -137.98218    27.675808 
   17700    69.990442   0.49905303      2204118          147  0.007193656   -137.39226     28.25854 
   17800    69.995794   0.42585627      2204118          147  0.007193656    -136.7974    28.866069 
   17900    70.000747   0.35837245      2204118          147  0.007193656   -136.18129    29.493905 
   18000    69.997766   0.29578529      2204118          147  0.007193656   -135.54628    30.121853 
   18100    69.993123   0.23827876      2204118          147  0.007193656   -134.88745    30.769692 
   18200    69.996201   0.18506317      2204118          147  0.007193656   -134.21757     31.44686 
   18300    70.003341   0.13572578      2204118          147  0.007193656   -133.53243    32.148901 
   18400    70.003926  0.088557585      2204118          147  0.007193656   -132.84451    32.838205 
   18500     69.99809  0.042033904      2204118          147  0.007193656   -132.17395    33.494952 
   18600    69.996207 -0.0025168414      2204118          147  0.007193656   -131.50534    34.159108 
   18700    70.001062 -0.044712988      2204118          147  0.007193656    -130.8375     34.83844 
   18800     70.00329 -0.084923944      2204118          147  0.007193656   -130.17556     35.50565 
   18900    69.998018  -0.12073151      2204118          147  0.007193656   -129.48265    36.186084 
   19000    69.993319  -0.15335311      2204118          147  0.007193656   -128.79025    36.867362 
   19100    69.997437  -0.18142177      2204118          147  0.007193656    -128.0823    37.585053 
   19200    70.004611  -0.20670067      2204118          147  0.007193656   -127.37899    38.305351 
   19300    70.004295  -0.23090061      2204118          147  0.007193656   -126.69317    38.990415 
   19400    69.998583  -0.25307543      2204118          147  0.007193656   -126.00399    39.666083 
   19500    69.998252   -0.2726503      2204118          147  0.007193656   -125.30616     40.36312 
   19600    70.004065  -0.29171811      2204118          147  0.007193656   -124.63401    41.049036 
   19700    70.005888  -0.30856695      2204118          147  0.007193656   -123.95274    41.734621 
   19800    69.999901  -0.32351734      2204118          147  0.007193656   -123.26876     42.40443 
   19900    69.995046   -0.3376824      2204118          147  0.007193656   -122.61273    43.048969 
   20000    69.998686  -0.34726272      2204118          147  0.007193656    -121.9315    43.738812 
   20100    70.004207  -0.35490772      2204118          147  0.007193656   -121.26598    44.417403 
   20200    70.001951  -0.36056768      2204118          147  0.007193656    -120.6068     45.07124 
   20300    69.996308  -0.36383775      2204118          147  0.007193656   -119.94722    45.717459 
   20400    69.997904  -0.36370413      2204118          147  0.007193656    -119.2734     46.39506 
   20500    70.005304   -0.3618144      2204118          147  0.007193656   -118.60576    47.080212 
   20600    70.007091  -0.35914541      2204118          147  0.007193656   -117.94744    47.742768 
   20700    70.000203  -0.35538561      2204118          147  0.007193656   -117.28978    48.384119 
   20800    69.995942  -0.35085667      2204118          147  0.007193656   -116.64878    49.015039 
   20900    70.000952  -0.34499435      2204118          147  0.007193656    -116.0228    49.652875 
   21000    70.006154  -0.33800599      2204118          147  0.007193656   -115.41009    50.277901 
   21100    70.002709  -0.32819473      2204118          147  0.007193656   -114.77668    50.903152 
   21200    69.996451  -0.31727169      2204118          147  0.007193656   -114.15651    51.508514 
   21300    69.998021  -0.30575706      2204118          147  0.007193656   -113.56672    52.102024 
   21400    70.004767  -0.29180715      2204118          147  0.007193656   -112.97339    52.711316 
   21500    70.005551  -0.27561389      2204118          147  0.007193656   -112.36876    53.317797 
   21600    69.999752  -0.25798131      2204118          147  0.007193656   -111.76345     53.90939 
   21700    69.997221  -0.24010927      2204118          147  0.007193656    -111.1829    54.483949 
   21800    70.002754  -0.21997046      2204118          147  0.007193656   -110.59467    55.085268 
   21900    70.007468  -0.20025634      2204118          147  0.007193656   -110.03392    55.657174 
   22000    70.003408   -0.1814685      2204118          147  0.007193656   -109.50066    56.180823 
   22100    69.997496  -0.16078929      2204118          147  0.007193656   -108.95284    56.714657 
   22200    69.999653  -0.14073903      2204118          147  0.007193656   -108.44108    57.231517 
   22300    70.005762  -0.11828165      2204118          147  0.007193656   -107.91325    57.773805 
   22400    70.004954 -0.095753092      2204118          147  0.007193656   -107.40154    58.283603 
   22500    69.998546 -0.070947994      2204118          147  0.007193656     -106.872    58.797978 
   22600     69.99725 -0.046864831      2204118          147  0.007193656   -106.38361    59.283308 
   22700    70.003048 -0.020918905      2204118          147  0.007193656   -105.89346    59.787175 
   22800    70.006629 0.0061976658      2204118          147  0.007193656   -105.40286    60.286254 
   22900    70.002704  0.032896496      2204118          147  0.007193656   -104.93094    60.748885 
   23000    69.998072  0.059841123      2204118          147  0.007193656   -104.46969    61.199172 
   23100    70.001229  0.088251604      2204118          147  0.007193656   -104.00425    61.672086 
   23200    70.006493   0.11635792      2204118          147  0.007193656   -103.55885    62.129941 
   23300    70.004672   0.14477379      2204118          147  0.007193656   -103.11578    62.568698 
   23400    69.999112   0.17311365      2204118          147  0.007193656   -102.68432    62.987004 
   23500    69.999119   0.20182727      2204118          147  0.007193656   -102.26411    63.407223 
   23600     70.00509    0.2302895      2204118          147  0.007193656   -101.86489    63.820579 
   23700    70.006757   0.25847341      2204118          147  0.007193656   -101.47745    64.211967 
   23800    70.001946   0.28611887      2204118          147  0.007193656    -101.1039    64.574124 
   23900    69.997998   0.31326196      2204118          147  0.007193656   -100.75036    64.918325 
   24000    70.001094   0.33990885      2204118          147  0.007193656   -100.42389    65.252121 
   24100     70.00546   0.36809036      2204118          147  0.007193656   -100.08913    65.597213 
   24200    70.003111   0.39568621      2204118          147  0.007193656   -99.778258    65.902528 
   24300    69.997568   0.42565299      2204118          147  0.007193656   -99.447774    66.219893 
   24400    69.997729   0.45555214      2204118          147  0.007193656   -99.147066    66.520982 
   24500     70.00372   0.48937925      2204118          147  0.007193656    -98.80967    66.872556 
   24600    70.005485   0.52246553      2204118          147  0.007193656   -98.503264    67.183141 
   24700    70.000512   0.55542148      2204118          147  0.007193656   -98.212286    67.462348 
   24800     69.99802   0.58982368      2204118          147  0.007193656   -97.913717     67.75502 
   24900    70.003142   0.62396251      2204118          147  0.007193656   -97.635567    68.045291 
   25000    70.007867   0.65811381      2204118          147  0.007193656   -97.362672     68.32937 
   25100    70.004683   0.69067452      2204118          147  0.007193656   -97.113321    68.571184 
   25200    69.998922   0.72295452      2204118          147  0.007193656   -96.870478    68.800392 
   25300    70.000153   0.75666855      2204118          147  0.007193656   -96.616785       69.057 
   25400    70.005252   0.78963281      2204118          147  0.007193656   -96.391552    69.294301 
   25500    70.004158   0.82249698      2204118          147  0.007193656   -96.182317    69.500947 
   25600    69.996922    0.8559444      2204118          147  0.007193656   -95.983924    69.682214 
   25700     69.99507   0.89188154      2204118          147  0.007193656   -95.777567    69.884188 
   25800     70.00267   0.93069681      2204118          147  0.007193656   -95.557453    70.122288 
   25900    70.008843   0.96832263      2204118          147  0.007193656    -95.37116    70.323191 
   26000    70.006242    1.0035442      2204118          147  0.007193656   -95.219086    70.469111 
   26100     70.00015    1.0392929      2204118          147  0.007193656   -95.053019    70.620759 
   26200    69.998543    1.0749814      2204118          147  0.007193656   -94.900176    70.769798 
   26300    70.000661    1.1115449      2204118          147  0.007193656   -94.759261    70.915725 
   26400    70.001159    1.1504383      2204118          147  0.007193656   -94.608376    71.067791 
   26500    70.000184    1.1892502      2204118          147  0.007193656   -94.484193    71.189664 
   26600     70.00153    1.2328698      2204118          147  0.007193656   -94.299633     71.37741 
   26700    70.004795     1.273389      2204118          147  0.007193656   -94.178561    71.506209 
   26800    70.004556    1.3144787      2204118          147  0.007193656   -94.053571    71.630635 
   26900    69.999515    1.3556564      2204118          147  0.007193656   -93.936613    71.735661 
   27000    69.996176    1.4001696      2204118          147  0.007193656   -93.788289    71.876084 
   27100    69.997635    1.4414711      2204118          147  0.007193656   -93.728203    71.939621 
   27200    70.000736    1.4887384      2204118          147  0.007193656   -93.602223    72.072941 
   27300    70.001726     1.537433      2204118          147  0.007193656   -93.473559     72.20395 
   27400    70.002652    1.5858985      2204118          147  0.007193656   -93.352785    72.326915 
   27500    70.006388    1.6323391      2204118          147  0.007193656   -93.252491     72.43605 
   27600    70.008181    1.6757483      2204118          147  0.007193656   -93.176991    72.515795 
   27700    70.002765      1.71628      2204118          147  0.007193656   -93.128451    72.551516 
   27800    69.994359    1.7567869      2204118          147  0.007193656    -93.08453    72.575541 
   27900    69.992236    1.7998465      2204118          147  0.007193656   -93.031546    72.623502 
   28000    69.997234    1.8476532      2204118          147  0.007193656   -92.944849    72.722028 
   28100    70.001001    1.8970507      2204118          147  0.007193656   -92.866843    72.808949 
   28200    69.999814    1.9479232      2204118          147  0.007193656   -92.779556    72.893428 
   28300    70.000983    2.0017564      2204118          147  0.007193656   -92.638663    73.037085 
   28400     70.00822    2.0525993      2204118          147  0.007193656   -92.519427    73.173449 
   28500    70.012389    2.0968339      2204118          147  0.007193656   -92.455834    73.246912 
   28600    70.006606    2.1343836      2204118          147  0.007193656   -92.439951    73.249106 
   28700    69.997571     2.167236      2204118          147  0.007193656   -92.454705    73.212968 
   28800    69.997184     2.198438      2204118          147  0.007193656   -92.473816    73.192942 
   28900    70.004294    2.2314537      2204118          147  0.007193656   -92.449701    73.233884 
   29000    70.005677      2.26026      2204118          147  0.007193656   -92.480566    73.206293 
   29100    69.996775    2.2886844      2204118          147  0.007193656   -92.509523    73.156268 
   29200    69.990231    2.3179746      2204118          147  0.007193656   -92.538417    73.111884 
   29300    69.994889    2.3503996      2204118          147  0.007193656   -92.544073    73.117255 
   29400    70.003731    2.3883271      2204118          147  0.007193656   -92.477971    73.204283 
   29500    70.005138     2.422043      2204118          147  0.007193656   -92.476276    73.209308 
   29600    70.001102    2.4545498      2204118          147  0.007193656    -92.46674     73.20929 
   29700    70.003184    2.4843709      2204118          147  0.007193656   -92.462834    73.218124 
   29800    70.009285    2.5061983      2204118          147  0.007193656   -92.544542    73.150857 
   29900     70.00737    2.5269169      2204118          147  0.007193656   -92.597175     73.09369 
   30000    69.996436    2.5438823      2204118          147  0.007193656   -92.684733    72.980254 
   30100    69.990425    2.5640614      2204118          147  0.007193656   -92.726831    72.923929 
   30200    69.995616    2.5871625      2204118          147  0.007193656   -92.754991    72.908054 
   30300    69.999888    2.6129433      2204118          147  0.007193656   -92.776586    72.896571 
   30400    69.995875    2.6410873      2204118          147  0.007193656   -92.791335    72.872324 
   30500    69.993294    2.6728068      2204118          147  0.007193656   -92.773525    72.884025 
   30600    70.000796    2.7039035      2204118          147  0.007193656   -92.777635    72.897672 
   30700    70.009309    2.7354285      2204118          147  0.007193656   -92.754558    72.940896 
   30800    70.008537    2.7612853      2204118          147  0.007193656   -92.774934    72.918694 
   30900    70.003331    2.7814061      2204118          147  0.007193656   -92.823305       72.858 
   31000    70.004995    2.7965513      2204118          147  0.007193656   -92.881452    72.803793 
   31100    70.011303    2.8013933      2204118          147  0.007193656   -93.035777    72.664398 
   31200    70.007326    2.8001217      2204118          147  0.007193656   -93.223247    72.467516 
   31300    69.993336    2.7968084      2204118          147  0.007193656    -93.40892     72.24873 
   31400    69.986587    2.7979817      2204118          147  0.007193656   -93.532684    72.108994 
   31500    69.993995    2.8037262      2204118          147  0.007193656   -93.624421     72.03479 
   31600    70.000891    2.8128294      2204118          147  0.007193656   -93.703176    71.972354 
   31700    69.997194    2.8263416      2204118          147  0.007193656   -93.739453    71.927329 
   31800    69.992235    2.8408564      2204118          147  0.007193656   -93.784243    71.870802 
   31900    69.997855     2.855461      2204118          147  0.007193656   -93.847346       71.821 
   32000    70.007817     2.875259      2204118          147  0.007193656   -93.828071    71.863854 
   32100    70.006532    2.8894779      2204118          147  0.007193656   -93.890308    71.798574 
   32200    69.995582    2.9029271      2204118          147  0.007193656   -93.965195    71.697772 
   32300    69.987241      2.92029      2204118          147  0.007193656    -94.00967    71.633555 
   32400    69.988296    2.9434193      2204118          147  0.007193656   -94.028377    71.617344 
   32500    69.993482    2.9748363      2204118          147  0.007193656   -93.986101    71.671895 
   32600    69.998405    3.0114284      2204118          147  0.007193656   -93.903458    71.766191 
   32700    70.008002    3.0475975      2204118          147  0.007193656   -93.818065    71.874297 
   32800    70.017331    3.0743352      2204118          147  0.007193656   -93.820739    71.893703 
   32900    70.013837    3.0924779      2204118          147  0.007193656   -93.869727    71.836444 
   33000    70.000333      3.10602      2204118          147  0.007193656   -93.914174    71.760038 
   33100    69.993571    3.1115063      2204118          147  0.007193656   -94.055354    71.602852 
   33200    69.994648    3.1224639      2204118          147  0.007193656   -94.120802    71.539953 
   33300     69.98532    3.1399162      2204118          147  0.007193656   -94.148587    71.490093 
   33400    69.968304    3.1717336      2204118          147  0.007193656   -94.059208    71.539198 
   33500    69.981959    3.2106327      2204118          147  0.007193656     -93.9644    71.666324 
   33600    70.026247    3.2543125      2204118          147  0.007193656    -93.81217    71.923373 
   33700    70.009237    3.2972756      2204118          147  0.007193656   -93.680494    72.014789 
   33800    69.933875    3.3531966      2204118          147  0.007193656   -93.426251    72.090671 
   33900    69.982008    3.4102704      2204118          147  0.007193656   -93.171218    72.459623 
   34000    70.126971     3.442928      2204118          147  0.007193656   -93.105729    72.868205 
   34100    70.082471    3.4527273      2204118          147  0.007193656   -93.126375    72.742237 
   34200    69.886068    3.4599303      2204118          147  0.007193656   -93.068058    72.335714 
   34300     69.87245    3.4752752      2204118          147  0.007193656   -93.007101     72.36444 
   34400    70.098953    3.4883199      2204118          147  0.007193656   -93.026105    72.881516 
   34500    70.171439    3.4883431      2204118          147  0.007193656   -93.030988    73.048191 
   34600    69.944666    3.4706413      2204118          147  0.007193656   -93.074368    72.468091 
   34700    69.836407    3.4472265      2204118          147  0.007193656   -93.179342    72.106895 
   34800     70.05077    3.4209682      2204118          147  0.007193656   -93.391438    72.402146 
   34900    70.196932    3.3813259      2204118          147  0.007193656   -93.695511    72.444003 
   35000    69.978466    3.3406927      2204118          147  0.007193656   -93.850049    71.772407 
   35100    69.748709    3.3185218      2204118          147  0.007193656   -93.901547     71.17713 
   35200    69.924308    3.3257269      2204118          147  0.007193656   -93.910638     71.58364 
   35300    70.236179     3.339019      2204118          147  0.007193656   -93.960421    72.271982 
   35400     70.12794    3.3452082      2204118          147  0.007193656   -93.934585    72.041643 
   35500    69.745974    3.3668835      2204118          147  0.007193656   -93.710167    71.362037 
   35600    69.754423    3.4235638      2204118          147  0.007193656   -93.412343    71.679856 
   35700    70.202265    3.4925149      2204118          147  0.007193656   -93.209053    72.943083 
   35800    70.367866    3.5271132      2204118          147  0.007193656     -93.1545    73.389575 
   35900    69.928236     3.529513      2204118          147  0.007193656   -93.106838    72.396735 
   36000    69.571855    3.5499407      2204118          147  0.007193656   -92.996446    71.663659 
   36100    69.930793    3.6101109      2204118          147  0.007193656   -92.853833    72.655793 
   36200    70.449077    3.6655615      2204118          147  0.007193656   -92.791093    73.945188 
   36300    70.260503     3.664783      2204118          147  0.007193656    -92.91131    73.378661 
   36400    69.681568    3.6266514      2204118          147  0.007193656   -93.194985    71.724784 
   36500    69.616178    3.6295429      2204118          147  0.007193656   -93.368533    71.396474 
   36600    70.086183     3.707845      2204118          147  0.007193656   -93.211533    72.665865 
   36700    70.285021    3.8223588      2204118          147  0.007193656   -92.760586    73.587415 
   36800    69.991626    3.9199865      2204118          147  0.007193656   -92.220285    73.433318 
   36900    69.834661     3.970923      2204118          147  0.007193656   -92.047219    73.234885 
   37000    70.028489    4.0032949      2204118          147  0.007193656   -92.115771    73.625077 
   37100    70.215012    4.0165172      2204118          147  0.007193656   -92.289861    73.892445 
   37200    70.031856    4.0139704      2204118          147  0.007193656   -92.423512    73.325307 
   37300    69.727964    4.0323999      2204118          147  0.007193656   -92.352574    72.677003 
   37400    69.875953    4.0737619      2204118          147  0.007193656   -92.294587    73.085246 
   37500    70.169829     4.146391      2204118          147  0.007193656   -92.080413    73.994956 
   37600    70.110024     4.231269      2204118          147  0.007193656   -91.635457    74.298365 
   37700    69.966151    4.2710984      2204118          147  0.007193656    -91.52287    74.070439 
   37800    69.855243     4.326985      2204118          147  0.007193656   -91.318052    74.012764 
   37900    69.815532    4.4580054      2204118          147  0.007193656   -90.630202    74.606628 
   38000    70.146607    4.5927052      2204118          147  0.007193656    -90.04843    75.971975 
   38100    70.395862    4.6627271      2204118          147  0.007193656   -89.963706    76.646627 
   38200    70.043244    4.6833974      2204118          147  0.007193656   -90.069386    75.706386 
   38300    69.424444    4.7753869      2204118          147  0.007193656   -89.621905    74.689312 
   38400    69.519478    5.0036078      2204118          147  0.007193656   -88.502864    76.033276 
   38500     70.51207    5.2462877      2204118          147  0.007193656   -87.587917    79.297453 
   38600    70.835124    5.3767815      2204118          147  0.007193656   -87.262628    80.387336 
   38700     69.70626    5.4521719      2204118          147  0.007193656   -86.793134    78.185075 
   38800    69.030881    5.5717586      2204118          147  0.007193656   -86.140158    77.239589 
   38900     69.95869    5.7797115      2204118          147  0.007193656   -85.428023    80.147629 
   39000    70.827754    6.0342871      2204118          147  0.007193656   -84.402651    83.229868 
   39100    70.208376    6.2437906      2204118          147  0.007193656   -83.131283    83.035317 
   39200    69.415901    6.3657334      2204118          147  0.007193656   -82.329052    81.961945 
   39300    69.967248    6.4019458      2204118          147  0.007193656   -82.507575    83.088332 
   39400    70.730547    6.3791679      2204118          147  0.007193656   -83.127103    84.275352 
   39500    70.102558    6.3437916      2204118          147  0.007193656   -83.333081    82.583072 
   39600    69.142964    6.3583956      2204118          147  0.007193656   -83.037548    80.607472 
   39700    69.617622    6.4447371      2204118          147  0.007193656   -82.733748    82.034677 
   39800    70.743004    6.5582073      2204118          147  0.007193656   -82.513668     84.91827 
   39900    70.520394    6.6439947      2204118          147  0.007193656   -82.000249    84.904822 
   40000     69.46047    6.6737377      2204118          147  0.007193656   -81.583292    82.813191 
   40100    69.377339     6.722816      2204118          147  0.007193656   -81.368022    82.831709 
   40200    70.256455    6.8525148      2204118          147  0.007193656   -80.867186    85.413204 
   40300    70.670201    6.9697571      2204118          147  0.007193656   -80.279801    86.979829 
   40400    70.021682    6.9970319      2204118          147  0.007193656   -79.981384    85.743356 
   40500    69.269242    7.0448138      2204118          147  0.007193656   -79.437669    84.506222 
   40600    69.675957    7.1709971      2204118          147  0.007193656   -78.725714    86.180776 
   40700    70.855194    7.2511524      2204118          147  0.007193656   -78.577675    89.119789 
   40800    70.777545    7.1981431      2204118          147  0.007193656   -78.912636    88.601051 
   40900    69.373725    7.0873063      2204118          147  0.007193656   -79.201547     84.98963 
   41000    68.967642    7.0449218      2204118          147  0.007193656   -79.416787    83.813288 
   41100    70.238754    7.1086128      2204118          147  0.007193656   -79.443015    86.795481 
   41200    71.017393    7.1933524      2204118          147  0.007193656   -79.100344    88.981007 
   41300    69.947026    7.2346246      2204118          147  0.007193656   -78.437187    87.110858 
   41400    68.964784    7.2757852      2204118          147  0.007193656    -77.82865    85.394662 
   41500    69.792466    7.3677319      2204118          147  0.007193656   -77.427505    87.754734 
   41600     71.11039    7.4209756      2204118          147  0.007193656   -77.390393    90.911058 
   41700    70.785336    7.2851216      2204118          147  0.007193656   -78.048493    89.483634 
   41800    69.241451    7.0563905      2204118          147  0.007193656   -78.780926    85.097191 
   41900    68.803003    6.9443714      2204118          147  0.007193656   -79.143071    83.697344 
   42000    70.123361     7.015838      2204118          147  0.007193656   -78.843998    87.121391 
   42100    71.256722    7.0806613      2204118          147  0.007193656   -78.532741    90.115045 
   42200     70.35905    7.0050146      2204118          147  0.007193656   -78.549627    87.973583 
   42300    68.811122    6.9265901      2204118          147  0.007193656   -78.355626    84.504004 
   42400    69.170128    6.9806601      2204118          147  0.007193656   -77.890715    85.818596 
   42500    70.932108    7.1042317      2204118          147  0.007193656   -77.457316    90.422185 
   42600    71.307604    7.0926671      2204118          147  0.007193656    -77.44536     91.32285 
   42700     69.73501    6.8708024      2204118          147  0.007193656   -78.305523    86.740731 
   42800    68.588063    6.6920245      2204118          147  0.007193656   -78.973643     83.35806 
   42900     69.68402    6.6720343      2204118          147  0.007193656   -79.354219    85.571353 
   43000    71.281657    6.7044373      2204118          147  0.007193656   -79.640356    89.066445 
   43100    70.372151    6.7561531      2204118          147  0.007193656   -79.008817    87.545399 
   43200    68.414413    6.9366317      2204118          147  0.007193656   -77.078084     84.84263 
   43300     69.08069    7.2456637      2204118          147  0.007193656   -75.100328    88.397306 
   43400    71.816505    7.4471661      2204118          147  0.007193656    -74.52204    95.450619 
   43500    72.043164    7.2798751      2204118          147  0.007193656    -75.56723    94.941878 
   43600    69.028579    6.8579232      2204118          147  0.007193656    -77.19345    86.180849 
   43700     67.59511    6.5605018      2204118          147  0.007193656   -78.472248     81.50937 
   43800    69.891896    6.5587352      2204118          147  0.007193656   -78.956227     86.46134 
   43900    72.113285    6.6835564      2204118          147  0.007193656   -78.613019    92.062049 
   44000    70.519537    6.7150793      2204118          147  0.007193656   -77.645869    89.257175 
   44100    68.101296    6.6947115      2204118          147  0.007193656    -76.82365    84.355989 
   44200    69.148205     6.728538      2204118          147  0.007193656   -76.786231    86.871194 
   44300    71.914577    6.7456013      2204118          147  0.007193656   -77.465974    92.738798 
   44400    71.318259    6.6417207      2204118          147  0.007193656   -77.879364    90.914065 
   44500    68.290778    6.5201055      2204118          147  0.007193656   -77.578025    84.050073 
   44600    68.028686    6.5848107      2204118          147  0.007193656   -76.937113    84.070676 
   44700    71.023519    6.8272663      2204118          147  0.007193656    -76.20597    91.889879 
   44800     72.27252    7.0038871      2204118          147  0.007193656   -75.346766    95.705174 
   44900    69.666972    6.9741781      2204118          147  0.007193656   -74.542864    90.342362 
   45000     67.92961    6.8727664      2204118          147  0.007193656   -74.498066    86.275233 
   45100    69.860614    6.8579317      2204118          147  0.007193656   -75.008681    90.334847 
   45200    71.995942    6.8756319      2204118          147  0.007193656   -75.281841    95.115503 
   45300    70.533654    6.7843689      2204118          147  0.007193656   -75.098586     91.83787 
   45400    68.124926    6.6746135      2204118          147  0.007193656   -74.700612    86.534954 
   45500    68.930475    6.6890084      2204118          147  0.007193656    -74.47534    88.666769 
   45600    71.732079    6.7288782      2204118          147  0.007193656   -74.802821    94.970021 
   45700    71.437799     6.683786      2204118          147  0.007193656   -74.699075    94.377278 
   45800    68.359438    6.6545631      2204118          147  0.007193656   -73.533071    88.257529 
   45900    68.004505    6.7775811      2204118          147  0.007193656   -72.227008     88.72355 
   46000    71.579508    6.8684504      2204118          147  0.007193656   -72.538455    96.873288 
   46100    72.871741    6.7037871      2204118          147  0.007193656   -73.912274     98.55788 
   46200    68.993268      6.40598      2204118          147  0.007193656   -74.384492    88.906234 
   46300    66.715365    6.2677885      2204118          147  0.007193656   -74.346084    83.553386 
   46400    69.876226    6.3937446      2204118          147  0.007193656   -74.382518     90.99796 
   46500    73.343443    6.5522085      2204118          147  0.007193656   -74.280004    99.306555 
   46600    70.932571    6.4792928      2204118          147  0.007193656   -73.812094    94.068503 
   46700    66.910766    6.3778114      2204118          147  0.007193656   -73.038639    85.323298 
   46800    67.928479    6.5486037      2204118          147  0.007193656   -72.063397    88.707227 
   46900    72.503475    6.8790839      2204118          147  0.007193656   -71.056153     100.5424 
   47000    73.207123    6.8651424      2204118          147  0.007193656   -71.050802    102.21312 
   47100    68.966214    6.3834066      2204118          147  0.007193656   -72.566577     90.66012 
   47200    66.563985    6.0016511      2204118          147  0.007193656    -74.00245    83.538738 
   47300    69.425077    6.0372003      2204118          147  0.007193656   -74.269242    90.043473 
   47400      73.2187    6.1874592      2204118          147  0.007193656     -74.0605    99.230823 
   47500    71.368614    6.1152197      2204118          147  0.007193656   -73.564177    95.348432 
   47600    67.274771    5.9416332      2204118          147  0.007193656     -73.0424    86.181052 
   47700    67.967244    5.9136382      2204118          147  0.007193656   -73.160238    87.702134 
   47800    72.290828    5.9895887      2204118          147  0.007193656   -73.838736    97.256534 
   47900    72.667994    5.9085187      2204118          147  0.007193656   -74.282509    97.705423 
   48000    68.258821    5.7030444      2204118          147  0.007193656   -73.990583    87.561882 
   48100    66.698717    5.6941155      2204118          147  0.007193656   -73.337837     84.52223 
   48200    70.611032    5.9520356      2204118          147  0.007193656   -72.629185    94.490405 
   48300    73.613867    6.1671143      2204118          147  0.007193656   -71.810927    102.41566 
   48400    70.527512    6.0129869      2204118          147  0.007193656   -71.473942    95.447977 
   48500    67.000003    5.6932088      2204118          147  0.007193656   -72.145904    86.427236 
   48600    68.607039    5.5594852      2204118          147  0.007193656   -73.198125    89.178489 
   48700    72.442929    5.5976748      2204118          147  0.007193656    -73.75792    97.697338 
   48800    71.881187    5.5203266      2204118          147  0.007193656   -73.632198    96.493549 
   48900    68.189248    5.2813005      2204118          147  0.007193656   -73.677812     87.70999 
   49000    67.565716    5.2046471      2204118          147  0.007193656   -73.664333    86.247716 
   49100    70.814881    5.3996137      2204118          147  0.007193656   -73.055244    94.546808 
   49200    72.714027    5.5435587      2204118          147  0.007193656   -72.423111    99.673772 
   49300    70.056578    5.4319391      2204118          147  0.007193656   -71.975173    93.832156 
   49400    67.471962    5.2827366      2204118          147  0.007193656   -71.831817    87.858337 
   49500    69.197219    5.2984873      2204118          147  0.007193656   -72.013671    91.759759 
   49600    72.277671    5.4037522      2204118          147  0.007193656   -72.006368    99.057763 
   49700    71.333669    5.3676224      2204118          147  0.007193656   -71.637598    97.192304 
   49800    68.145043    5.2326944      2204118          147  0.007193656   -71.170977    90.112203 
   49900      68.2755    5.1851996      2204118          147  0.007193656   -71.219248    90.372692 
   50000    71.253461    5.2902583      2204118          147  0.007193656   -71.237636    97.402433 
   50100    71.835091    5.4011417      2204118          147  0.007193656   -70.339394    99.677254 
   50200    69.516092    5.2793763      2204118          147  0.007193656    -70.10466    94.423468 
   50300    68.186021    5.1529863      2204118          147  0.007193656   -70.206817    91.173347 
   50400    69.766485    5.2120196      2204118          147  0.007193656    -69.97867    95.142079 
   50500    71.707946    5.3133489      2204118          147  0.007193656   -69.588377    100.12735 
   50600    70.817804    5.2485971      2204118          147  0.007193656    -69.37981    98.229161 
   50700    68.710798    5.0684414      2204118          147  0.007193656   -69.579006     93.04318 
   50800    68.851973    4.9646069      2204118          147  0.007193656    -70.08469    92.871623 
   50900    70.933773    4.9613413      2204118          147  0.007193656   -70.548116    97.335327 
   51000    71.359737    4.9165177      2204118          147  0.007193656   -70.800849    98.090748 
   51100    69.280214    4.8334051      2204118          147  0.007193656   -70.553831    93.416029 
   51200    68.309048    4.8649335      2204118          147  0.007193656   -69.871832    91.799508 
   51300    70.200023    5.0244776      2204118          147  0.007193656   -69.349955    96.796873 
   51400    71.736506    5.1909866      2204118          147  0.007193656   -68.626749    101.15657 
   51500    70.509208     5.138771      2204118          147  0.007193656   -68.523342    98.355256 
   51600     68.81317    4.9211293      2204118          147  0.007193656   -69.430174    93.434303 
   51700    68.827601    4.9046572      2204118          147  0.007193656   -69.494537    93.404095 
   51800    70.409999    5.1288856      2204118          147  0.007193656   -68.418408    98.225385 
   51900    71.343514    5.3145834      2204118          147  0.007193656   -67.463151    101.39005 
   52000    69.934797    5.4027271      2204118          147  0.007193656   -66.408228    99.110875 
   52100    68.884193    5.4215656      2204118          147  0.007193656   -65.905494    97.127079 
   52200     70.22473    5.3552716      2204118          147  0.007193656   -66.868156    99.337149 
   52300    71.075876    5.3099255      2204118          147  0.007193656   -67.559835    100.65993 
   52400    69.577015    5.3655669      2204118          147  0.007193656   -66.733581    97.938737 
   52500    68.843975    5.4403841      2204118          147  0.007193656   -66.081056    96.856329 
   52600    70.514432    5.4524795      2204118          147  0.007193656   -66.723192    100.16777 
   52700    71.152528    5.4996576      2204118          147  0.007193656   -66.711773    101.68941 
   52800    69.073496     5.715926      2204118          147  0.007193656   -64.634756     98.84585 
   52900    68.166525    6.1433317      2204118          147  0.007193656   -61.419534    99.914488 
   53000    71.566574    6.3006273      2204118          147  0.007193656    -61.70355    107.67758 
   53100    73.048477    6.0853682      2204118          147  0.007193656   -64.002995    108.88545 
   53200     68.59105     5.880692      2204118          147  0.007193656   -64.143289    98.195481 
   53300    66.572815    5.8100386      2204118          147  0.007193656   -64.217769    93.344319 
   53400    70.411772    5.9510544      2204118          147  0.007193656   -64.896743    101.75125 
   53500    73.541331    6.1220072      2204118          147  0.007193656   -65.134499    108.92042 
   53600    70.110031    6.1664789      2204118          147  0.007193656   -64.115436     101.8184 
   53700    65.743073    6.4984403      2204118          147  0.007193656   -60.685062    94.913223 
   53800    68.733715     7.066797      2204118          147  0.007193656   -58.011124     104.6653 
   53900    75.610071    7.2402014      2204118          147  0.007193656   -59.568016    119.38312 
   54000     72.07234    7.1621925      2204118          147  0.007193656   -59.163329    111.41483 
   54100    65.104627    7.0030377      2204118          147  0.007193656   -58.075305    96.011929 
   54200     66.96156    6.9710683      2204118          147  0.007193656   -59.171156    99.310998 
   54300    73.018326    7.5284251      2204118          147  0.007193656   -57.448879    115.36821 
   54400    73.866449    7.9129359      2204118          147  0.007193656   -55.153971    119.67042 
   54500    68.753476    7.7235605      2204118          147  0.007193656   -54.992335    107.73086 
   54600    64.975751    7.9530598      2204118          147  0.007193656   -52.170564    101.61165 
   54700    69.216172    8.6245898      2204118          147  0.007193656   -48.842209    114.97608 
   54800    77.584819    8.5277744      2204118          147  0.007193656   -52.586662    131.03823 
   54900    71.705936    8.1326178      2204118          147  0.007193656   -53.354326    116.35664 
   55000    63.004014    7.7971818      2204118          147  0.007193656   -52.680698    96.434883 
   55100    66.042865    7.9059796      2204118          147  0.007193656   -52.872315    103.43551 
   55200     76.29047    8.2560546      2204118          147  0.007193656   -53.999082    126.56239 
   55300    73.472489    8.9229591      2204118          147  0.007193656   -48.079249    125.81273 
   55400    67.200357    8.3726342      2204118          147  0.007193656   -50.125214    108.92212 
   55500    65.400654    8.2026642      2204118          147  0.007193656   -50.958375    103.82949 
   55600     69.06173    9.0687175      2204118          147  0.007193656   -46.016409    117.43635 
   55700    76.912767    9.2179695      2204118          147  0.007193656   -47.702703     134.3316 
   55800    73.843356    8.3494244      2204118          147  0.007193656   -52.806273    121.96346 
   55900    63.188203    7.7824487      2204118          147  0.007193656   -52.956742     96.59477 
   56000    64.168002     7.661871      2204118          147  0.007193656   -54.164624    97.705841 
   56100    74.585084     8.157163      2204118          147  0.007193656   -54.352179    122.17305 
   56200    75.999915    8.8307783      2204118          147  0.007193656   -50.358927    129.51488 
   56300    66.409028    9.2247207      2204118          147  0.007193656   -44.563251    112.61119 
   56400    64.510214    9.3868682      2204118          147  0.007193656   -43.156162    109.52424 
   56500    71.256409    10.107744      2204118          147  0.007193656   -40.601867    128.04518 
   56600    76.754188    10.562695      2204118          147  0.007193656   -39.549802    142.10918 
   56700    71.270139     10.15006      2204118          147  0.007193656   -40.932365    127.74717 
   56800    64.220065    9.6283027      2204118          147  0.007193656   -42.498239    109.49545 
   56900    65.580934    9.8917304      2204118          147  0.007193656   -41.097595    114.11695 
   57000    74.878032    10.373555      2204118          147  0.007193656    -40.87788    136.34069 
   57100    75.586878    10.590447      2204118          147  0.007193656   -39.579856    139.31638 
   57200    66.817791    10.290938      2204118          147  0.007193656   -38.672207    119.46968 
   57300    65.146258    9.8120718      2204118          147  0.007193656   -41.492656    112.69311 
   57400    70.998728    9.8643173      2204118          147  0.007193656    -43.06074    124.97643 
   57500    74.423739    10.169441      2204118          147  0.007193656   -41.892307    134.25106 
   57600     71.94784    9.4569473      2204118          147  0.007193656   -46.148391    124.13511 
   57700    65.064411    9.0934879      2204118          147  0.007193656    -46.35644    107.63561 
   57800    65.439787    9.4307254      2204118          147  0.007193656   -44.056407    110.82407 
   57900    74.346917     9.877347      2204118          147  0.007193656   -44.029948     131.9316 
   58000    76.296312    9.8966368      2204118          147  0.007193656   -44.698334    135.87697 
   58100    67.752803    9.2476345      2204118          147  0.007193656   -46.657389    113.69745 
   58200    62.533421    9.1475251      2204118          147  0.007193656   -45.803257    102.19854 
   58300    68.948573    9.7226008      2204118          147  0.007193656   -44.163384    119.02156 
   58400    77.397717    10.551594      2204118          147  0.007193656   -41.394622    141.78744 
   58500    73.174272    10.641221      2204118          147  0.007193656   -39.530036    133.65614 
   58600     63.89421    10.499337      2204118          147  0.007193656   -37.397273    113.82519 
   58700    65.649443    10.492998      2204118          147  0.007193656   -38.114527    117.26216 
   58800    75.752976    10.547691      2204118          147  0.007193656   -41.300327    137.98903 
   58900    74.916698    10.521491      2204118          147  0.007193656   -41.217618    136.09246 
   59000    65.529604    10.195021      2204118          147  0.007193656   -40.301782    114.79127 
   59100    65.283977    9.7182849      2204118          147  0.007193656   -43.622507    110.88921 
   59200     72.38367    9.7560687      2204118          147  0.007193656   -45.673699    125.64131 
   59300     74.52883    9.9896764      2204118          147  0.007193656   -44.593507    131.79858 
   59400     68.78993      9.88052      2204118          147  0.007193656   -43.302922    119.50655 
   59500    66.232238    9.5498129      2204118          147  0.007193656   -44.827799    111.92822 
   59600     69.70298     9.585642      2204118          147  0.007193656   -45.808918    119.16153 
   59700     73.38701     9.789679      2204118          147  0.007193656   -45.696304    127.99337 
   59800    70.684049    9.9106961      2204118          147  0.007193656      -43.926     123.3664 
   59900    67.176272    9.8654025      2204118          147  0.007193656   -42.986599    116.00373 
   60000    68.842892    9.8596076      2204118          147  0.007193656   -43.411887    119.52294 
   60100     72.92712    9.8014024      2204118          147  0.007193656   -44.885247    127.71598 
   60200    72.149722    9.4458021      2204118          147  0.007193656   -46.837137    123.92417 
   60300    66.925664    9.2330188      2204118          147  0.007193656   -46.264149    112.13305 
   60400    66.717764    9.3267036      2204118          147  0.007193656   -45.293747     112.6114 
   60500    73.253562    9.2903147      2204118          147  0.007193656   -47.767418    125.60642 
   60600    73.887358     9.162975      2204118          147  0.007193656   -49.000652    125.87323 
   60700    66.901278    9.0954577      2204118          147  0.007193656   -47.350098    110.98938 
   60800    65.099875    9.3342514      2204118          147  0.007193656   -45.313509    108.76248 
   60900    71.967007    9.7606839      2204118          147  0.007193656   -44.925057     125.4038 
   61000    75.699288    10.062428      2204118          147  0.007193656   -44.243544    134.91874 
   61100    69.294342    9.9460893      2204118          147  0.007193656   -42.964541    121.03876 
   61200    64.955255    9.6843315      2204118          147  0.007193656   -43.365427    110.36828 
   61300    69.535519     9.577864      2204118          147  0.007193656   -45.650226    118.92388 
   61400    74.648889    9.6777303      2204118          147  0.007193656   -46.600598    130.07564 
   61500     71.27062    9.5560544      2204118          147  0.007193656   -46.304372    122.37631 
   61600    65.959706    9.3440882      2204118          147  0.007193656   -46.028523    110.08248 
   61700    67.553495    9.3803733      2204118          147  0.007193656   -46.429248    113.45388 
   61800    73.136508    9.6885203      2204118          147  0.007193656   -46.212624    126.88417 
   61900    73.173862    9.8190244      2204118          147  0.007193656   -45.237691    127.94751 
   62000    68.545602    9.4132562      2204118          147  0.007193656   -46.479808     115.7514 
   62100    66.501885    9.1273063      2204118          147  0.007193656   -47.648866    109.74535 
   62200    70.678285    8.9616245      2204118          147  0.007193656   -50.095218    117.18354 
   62300    73.657621    8.7959097      2204118          147  0.007193656   -52.192725    122.13742 
   62400    69.079535    8.7862803      2204118          147  0.007193656   -50.645516    112.84938 
   62500    65.958643    8.9480418      2204118          147  0.007193656   -48.457278    107.65121 
   62600    69.864213    9.3028324      2204118          147  0.007193656   -47.490767    117.86128 
   62700    73.452542    9.9399688      2204118          147  0.007193656   -44.218607    129.62616 
   62800    71.628919    10.091215      2204118          147  0.007193656   -42.423081    127.10561 
   62900    69.023142    9.3984882      2204118          147  0.007193656   -46.414602    116.94683 
   63000    67.580749    8.9708475      2204118          147  0.007193656   -48.737635    111.20999 
   63100    69.433024    8.9734606      2204118          147  0.007193656   -49.106154    115.22537 
   63200    72.491636    8.9658479      2204118          147  0.007193656   -49.993505    121.57703 
   63300    70.845334    8.9201639      2204118          147  0.007193656   -49.559215    118.11491 
   63400    67.761448    8.8353955      2204118          147  0.007193656    -48.91477    111.46053 
   63500    68.898756    8.7660375      2204118          147  0.007193656   -49.714959    113.35208 
   63600     72.18307    8.7038933      2204118          147  0.007193656   -51.247512    119.59272 
   63700    71.197395     8.663422      2204118          147  0.007193656   -51.237561    117.26981 
   63800    67.465379    8.8010417      2204118          147  0.007193656   -48.971998    110.70258 
   63900    68.005758    9.1177991      2204118          147  0.007193656   -46.940502    114.01302 
   64000    72.737968        9.318      2204118          147  0.007193656   -47.195661    124.95788 
   64100    72.853951    9.2859393      2204118          147  0.007193656   -47.305433    125.12262 
   64200    68.331115    8.9370197      2204118          147  0.007193656   -48.030078    113.69349 
   64300    67.141628    8.5693706      2204118          147  0.007193656   -50.077196    108.83114 
   64400    70.356086    8.5417616      2204118          147  0.007193656   -51.298135    115.21806 
   64500    72.552944    8.6811013      2204118          147  0.007193656   -50.932592    120.78304 
   64600    69.923375    8.7779048      2204118          147  0.007193656    -49.29126    116.20081 
   64700    67.165474    8.9755105      2204118          147  0.007193656   -46.903662    112.06111 
   64800    69.598825    9.2427334      2204118          147  0.007193656   -45.600318    119.12362 
   64900     74.25855    9.0233523      2204118          147  0.007193656    -48.48415    127.26825 
   65000    71.150367    8.5657817      2204118          147  0.007193656   -50.268427    118.12764 
   65100    66.221824    8.0534142      2204118          147  0.007193656   -51.847977     104.8834 
   65200    67.702112    7.8098205      2204118          147  0.007193656   -53.781176    106.45369 
   65300    72.570536    7.9441763      2204118          147  0.007193656   -54.306188    117.45109 
   65400    72.238977    8.1904601      2204118          147  0.007193656   -52.306553      118.666 
   65500    68.011652     8.297919      2204118          147  0.007193656   -50.003587    110.96389 
   65600    68.316393    8.1616977      2204118          147  0.007193656   -51.044285    110.64444 
   65700    71.451899    8.1634716      2204118          147  0.007193656   -52.099783    117.00994 
   65800    71.408162    8.3118033      2204118          147  0.007193656   -51.051267    117.95494 
   65900    68.930787    8.3697887      2204118          147  0.007193656   -49.950278    113.19257 
   66000    68.215518    8.5404608      2204118          147  0.007193656   -48.652629    112.79735 
   66100    70.026504    9.0057949      2204118          147  0.007193656   -46.005182    119.73097 
   66200    72.534851    9.2191973      2204118          147  0.007193656   -45.372118     126.3007 
   66300    71.390717    8.9680903      2204118          147  0.007193656   -46.706686    122.25823 
   66400    67.616811    8.7212798      2204118          147  0.007193656   -46.969144    113.06383 
   66500    68.061756    8.5900217      2204118          147  0.007193656    -47.87203    113.21403 
   66600    71.981365    8.5508698      2204118          147  0.007193656   -49.318203    121.04464 
   66700    72.159634     8.493567      2204118          147  0.007193656   -49.637915    121.14685 
   66800    68.131593    8.4542907      2204118          147  0.007193656   -48.459014    112.79233 
   66900    67.605073    8.4459507      2204118          147  0.007193656    -48.28185    111.72335 
   67000    71.405736    8.5140502      2204118          147  0.007193656   -48.912041    120.08843 
   67100    73.287012     8.311634      2204118          147  0.007193656   -50.760072    122.69293 
   67200    69.665796    7.7966709      2204118          147  0.007193656   -52.903694    111.97875 
   67300    66.433531    7.4429636      2204118          147  0.007193656   -54.131191    103.10124 
   67400    68.734045    7.5064586      2204118          147  0.007193656   -54.380618    108.29659 
   67500    73.236574    7.7043947      2204118          147  0.007193656   -54.553902    118.77972 
   67600    72.105021    7.6785577      2204118          147  0.007193656   -54.493926    116.16158 
   67700    66.848181    7.7060315      2204118          147  0.007193656   -52.665179    105.54864 
   67800    66.585983    8.0757894      2204118          147  0.007193656   -50.049165    107.54409 
   67900    72.695045    8.5017505      2204118          147  0.007193656   -49.156225    122.89573 
   68000    74.736029    8.5614543      2204118          147  0.007193656   -49.322548    127.55993 
   68100    68.551209    8.2255314      2204118          147  0.007193656   -49.324646    112.91983 
   68200    65.387715    7.8835868      2204118          147  0.007193656   -50.313294    104.44394 
   68300    70.208051    7.7510924      2204118          147  0.007193656   -52.442544    113.72329 
   68400    74.538272    7.7092491      2204118          147  0.007193656   -53.755655    122.65878 
   68500    70.084209    7.6196152      2204118          147  0.007193656   -52.352216    113.52051 
   68600    65.994212    7.4275408      2204118          147  0.007193656   -51.854297    104.33837 
   68700    69.352569    7.2648435      2204118          147  0.007193656    -53.77076    110.37035 
   68800    73.756849    7.2241809      2204118          147  0.007193656   -55.092842    119.47215 
   68900     71.52004    6.9322841      2204118          147  0.007193656   -56.047555    113.22344 
   69000    66.794839    6.5601663      2204118          147  0.007193656   -56.841876    101.24569 
   69100    67.123347    6.5612279      2204118          147  0.007193656   -56.881276    101.98379 
   69200    71.759866     6.995905      2204118          147  0.007193656   -55.280349    114.55826 
   69300    73.440039    7.3207064      2204118          147  0.007193656   -53.514192    120.30099 
   69400    69.952666    7.0922319      2204118          147  0.007193656   -53.914657    111.64674 
   69500    66.967994    6.7753861      2204118          147  0.007193656   -55.132709    103.36467 
   69600    68.545485    6.8622171      2204118          147  0.007193656   -55.056133     107.1748 
   69700    72.120486    7.2467997      2204118          147  0.007193656   -53.609032    117.08308 
   69800    71.812781    7.5666197      2204118          147  0.007193656   -51.167738    118.79611 
   69900    68.819782     7.571886      2204118          147  0.007193656   -49.993315    112.88681 
   70000    68.656561    7.3728047      2204118          147  0.007193656   -51.062361    111.43146 
   70100    70.963913    7.1885265      2204118          147  0.007193656   -52.757049    115.19773 
   70200     71.45765     6.986172      2204118          147  0.007193656   -53.905867    115.21747 
   70300    69.220016    6.7578274      2204118          147  0.007193656   -54.417606    109.40978 
   70400    68.024765    6.7141436      2204118          147  0.007193656   -53.966356    107.03215 
   70500    70.032276    6.8596434      2204118          147  0.007193656   -53.351108     112.3987 
   70600    72.201764    6.9563295      2204118          147  0.007193656   -53.020111    117.86437 
   70700    71.010252    6.7244729      2204118          147  0.007193656   -53.911147     114.1533 
   70800     68.31157    6.3549004      2204118          147  0.007193656   -55.371167    106.30614 
   70900    68.009217    6.2822224      2204118          147  0.007193656   -55.594382    105.36733 
   71000    70.919593    6.4303783      2204118          147  0.007193656   -55.323516    112.52637 
   71100    72.436961    6.4705663      2204118          147  0.007193656   -55.450085    115.99105 
   71200    69.349947    6.4679605      2204118          147  0.007193656   -54.296101     109.8388 
   71300    67.366407    6.5331091      2204118          147  0.007193656    -52.99782    106.44251 
   71400    70.293725    6.6183281      2204118          147  0.007193656   -53.204375    113.16423 
   71500    73.085526    6.5733421      2204118          147  0.007193656    -54.24093     118.7352 
   71600    70.541591    6.2752212      2204118          147  0.007193656   -55.288454    111.66679 
   71700    67.044748    6.0070754      2204118          147  0.007193656    -55.75629    102.92275 
   71800    68.264922    6.0508291      2204118          147  0.007193656   -55.719984    105.84692 
   71900    72.299463    6.2993426      2204118          147  0.007193656   -55.290042    115.82567 
   72000    72.269258    6.4302208      2204118          147  0.007193656    -54.31326    116.73096 
   72100    68.474546    6.3420675      2204118          147  0.007193656   -53.597104    108.46593 
   72200    67.633625    6.2565123      2204118          147  0.007193656   -53.829172     106.2436 
   72300    70.883887    6.3110231      2204118          147  0.007193656   -54.370664    113.39471 
   72400    72.599446    6.3152129      2204118          147  0.007193656   -54.785514    117.04018 
   72500    69.676372     6.170523      2204118          147  0.007193656   -54.629651    110.27782 
   72600     67.31208    6.0704393      2204118          147  0.007193656   -54.378438    104.93332 
   72700    69.600678    6.1210463      2204118          147  0.007193656   -54.636489    110.09183 
   72800    72.718056    6.1794959      2204118          147  0.007193656    -55.14011    116.96631 
   72900     70.88323    6.1239453      2204118          147  0.007193656   -54.758522     113.0053 
   73000    67.442498    6.0620809      2204118          147  0.007193656   -53.946357    105.67406 
   73100    68.087248    6.2741575      2204118          147  0.007193656   -52.517195     108.6292 
   73200    72.124987    6.5946363      2204118          147  0.007193656   -51.441581    119.26118 
   73300    73.108019    6.5462238      2204118          147  0.007193656   -51.955253    121.07412 
   73400    68.911243    6.1858659      2204118          147  0.007193656   -52.846302    110.25029 
   73500    66.424667    5.9983466      2204118          147  0.007193656   -53.064921    104.14653 
   73600    69.750004    6.1243818      2204118          147  0.007193656   -52.987982    112.09376 
   73700    73.845608    6.1991749      2204118          147  0.007193656   -53.570936    121.20413 
   73800    71.541988    5.8783511      2204118          147  0.007193656   -54.728535    114.59441 
   73900     66.70199    5.4692129      2204118          147  0.007193656    -55.76417    102.10364 
   74000    67.005161     5.471603      2204118          147  0.007193656   -55.641576    102.94377 
   74100    72.079322    5.8112796      2204118          147  0.007193656     -54.8728    115.72189 
   74200     73.75298    5.9816368      2204118          147  0.007193656   -54.165799    120.39004 
   74300     69.03157    5.8124918      2204118          147  0.007193656   -53.691251    109.69013 
   74400    66.110863    5.7150909      2204118          147  0.007193656   -53.257927    103.21083 
   74500    69.710194    5.8804241      2204118          147  0.007193656   -53.076393    111.91113 
   74600    74.255336    5.9638147      2204118          147  0.007193656   -53.723056    122.02174 
   74700    71.458125    5.6717996      2204118          147  0.007193656   -54.457384    114.66708 
   74800     66.12982    5.3470281      2204118          147  0.007193656   -54.565614    101.94801 
   74900    67.393639    5.2810316      2204118          147  0.007193656   -55.127266    104.37752 
   75000    73.191333    5.4098826      2204118          147  0.007193656   -55.889047    117.33751 
   75100    73.124812    5.4501451      2204118          147  0.007193656   -55.278602    117.79051 
   75200    67.564181    5.3045221      2204118          147  0.007193656   -54.231379    105.67704 
   75300    66.300218    5.3222316      2204118          147  0.007193656   -53.509404    103.40751 
   75400    71.374429     5.575929      2204118          147  0.007193656   -53.252783    115.67359 
   75500    74.444702    5.6599551      2204118          147  0.007193656   -53.623069    122.56991 
   75600    69.567908    5.4683671      2204118          147  0.007193656   -53.237311    111.41345 
   75700    65.422782    5.4062578      2204118          147  0.007193656   -52.160791    102.67944 
   75800    68.916935    5.6567169      2204118          147  0.007193656   -51.612158    111.49791 
   75900    74.479697    6.0036325      2204118          147  0.007193656   -51.033811    125.24199 
[...]
  381700    69.856137    5.7374959      2204118          147  0.007193656   -39.112214    126.22072 
  381800    67.980953     5.473947      2204118          147  0.007193656   -40.221191    120.67363 
  381900    69.061388    5.6257384      2204118          147  0.007193656   -39.564095    123.88785 
  382000    72.930511    6.2432122      2204118          147  0.007193656   -36.655087    135.95416 
  382100    70.980057    6.6139585      2204118          147  0.007193656   -33.511814    134.48117 
  382200     69.66606    6.5134786      2204118          147  0.007193656   -33.902215    130.98085 
  382300     70.18214    6.2237276      2204118          147  0.007193656   -36.245035    129.85947 
  382400    69.886992    6.1574517      2204118          147  0.007193656   -36.636921    128.76904 
  382500    69.026343    6.3879028      2204118          147  0.007193656   -34.735188    128.63382 
  382600    72.289702    6.9806382      2204118          147  0.007193656   -31.683245    139.40936 
  382700    73.324041    7.0728026      2204118          147  0.007193656   -31.338238     142.2024 
  382800    69.423123    6.6805736      2204118          147  0.007193656   -32.593235    131.71486 
  382900    68.488339    6.3278785      2204118          147  0.007193656   -34.453466    127.64221 
  383000    70.574159    6.0958672      2204118          147  0.007193656   -36.469175    130.56315 
  383100    72.817308    5.9889815      2204118          147  0.007193656   -37.730137    134.61119 
  383200     70.08128    5.7323728      2204118          147  0.007193656   -38.370768    127.49503 
  383300    67.002476    5.5362932      2204118          147  0.007193656   -38.572789     120.0062 
  383400    69.457043    5.6520119      2204118          147  0.007193656   -38.609594    125.77878 
  383500    71.911903    5.8264404      2204118          147  0.007193656   -38.368464    131.82998 
  383600    70.509115    5.9182942      2204118          147  0.007193656   -37.398394    129.47998 
  383700     69.16146    6.0499299      2204118          147  0.007193656   -36.220681    127.46812 
  383800    69.431434    6.2020612      2204118          147  0.007193656    -35.44457    128.88319 
  383900    70.258349      6.29669      2204118          147  0.007193656    -35.23578    131.04909 
  384000     70.67739    6.2889187      2204118          147  0.007193656   -35.591612    131.68503 
  384100    68.351774     6.195751      2204118          147  0.007193656   -35.573808    126.19865 
  384200    65.884633    6.0978484      2204118          147  0.007193656   -35.500167    120.43316 
  384300    70.339641    6.2301601      2204118          147  0.007193656   -36.275317    130.20196 
  384400     72.09482    6.3179773      2204118          147  0.007193656   -36.513324    134.11804 
  384500    69.749326    6.3146439      2204118          147  0.007193656   -36.048955    129.03118 
  384600    67.781485    6.4004502      2204118          147  0.007193656   -35.137337    125.28539 
  384700    71.213379    6.8670834      2204118          147  0.007193656   -33.399721    135.14548 
  384800    73.603041    7.2277524      2204118          147  0.007193656   -31.949855    142.25111 
  384900    70.004642    7.1021856      2204118          147  0.007193656   -31.787649    133.89676 
  385000    68.298319    6.9903299      2204118          147  0.007193656   -31.946272    129.69968 
  385100    69.979219    6.9836116      2204118          147  0.007193656   -32.314894    133.30934 
  385200    74.146269    6.8276713      2204118          147  0.007193656   -34.475841    141.01082 
  385300    72.453466    6.3485917      2204118          147  0.007193656    -36.84022    134.63998 
  385400    67.973126    5.9680457      2204118          147  0.007193656   -37.540152    123.33614 
  385500    68.768548    5.9880615      2204118          147  0.007193656   -37.181509    125.57736 
  385600    72.150625      6.03294      2204118          147  0.007193656   -37.548222    133.21522 
  385700    71.968282    5.7920791      2204118          147  0.007193656   -38.867034    131.46485 
  385800    67.675283    5.4536864      2204118          147  0.007193656   -39.509787    120.66158 
  385900    68.673643    5.2546652      2204118          147  0.007193656   -41.153435    121.38082 
  386000    70.416645    5.2383598      2204118          147  0.007193656    -41.90078    124.75874 
  386100    70.126588    5.4583362      2204118          147  0.007193656   -40.439032    125.53399 
  386200    69.403994     5.784473      2204118          147  0.007193656   -38.143426    126.11939 
  386300    72.472205    6.0214425      2204118          147  0.007193656   -37.880299    133.64425 
  386400    72.837941    6.0459213      2204118          147  0.007193656    -38.13894    134.25122 
  386500    68.264913     5.916292      2204118          147  0.007193656   -37.776726    123.79016 
  386600    67.894261    6.0338006      2204118          147  0.007193656   -37.090764    123.59887 
  386700    70.758496    6.2330717      2204118          147  0.007193656     -36.8479     130.6207 
  386800    71.238362    6.3306869      2204118          147  0.007193656    -36.48659    132.11774 
  386900    70.151129    6.3474574      2204118          147  0.007193656   -36.085499    129.94561 
  387000    69.966907    6.2579618      2204118          147  0.007193656   -36.712331    128.88277 
  387100    69.799511    6.2281593      2204118          147  0.007193656   -36.980454    128.21846 
  387200    69.609825    6.3473007      2204118          147  0.007193656   -36.124811    128.62516 
  387300    71.463119    6.5050979      2204118          147  0.007193656   -35.654592    133.48169 
  387400    72.235487    6.4131832      2204118          147  0.007193656    -36.53422    134.43007 
  387500    68.599311    6.1601283      2204118          147  0.007193656   -37.012197    125.34613 
  387600    67.487065    6.1327383      2204118          147  0.007193656    -36.64881    123.07709 
  387700    71.200438    6.2255339      2204118          147  0.007193656   -37.153247    131.36133 
  387800    72.759204    6.1088371      2204118          147  0.007193656   -38.265286    133.93852 
  387900    71.378674    5.8078726      2204118          147  0.007193656   -39.818682    129.11774 
  388000     69.54597    5.6490259      2204118          147  0.007193656    -40.19291    124.40593 
  388100    68.448551    5.6893408      2204118          147  0.007193656   -39.524124    122.47739 
  388200     70.73388    5.9491728      2204118          147  0.007193656   -38.666558    128.74378 
  388300    73.505515    6.4008872      2204118          147  0.007193656    -36.69214    137.27801 
  388400    69.854203     6.529511      2204118          147  0.007193656   -34.801896    130.52646 
  388500    66.624041    6.4624178      2204118          147  0.007193656   -34.433769    123.24956 
  388600    68.178436    6.5954167      2204118          147  0.007193656   -34.095844    127.26637 
  388700    70.877638    6.6031387      2204118          147  0.007193656    -34.96569    132.78489 
  388800    72.120758    6.3538498      2204118          147  0.007193656   -37.064287    133.62847 
  388900    68.489591    6.0356102      2204118          147  0.007193656   -37.932597    124.16605 
  389000    67.134441     6.012521      2204118          147  0.007193656   -37.534672    121.35665 
  389100    69.651842    6.1437916      2204118          147  0.007193656   -37.450522    127.39889 
  389200    70.441974    6.1872689      2204118          147  0.007193656   -37.344671     129.3748 
  389300    69.773443    6.2841145      2204118          147  0.007193656   -36.350501    128.78672 
  389400    70.048054    6.2003347      2204118          147  0.007193656   -36.936506    128.85065 
  389500    71.282934    5.8917633      2204118          147  0.007193656   -39.485591    129.22423 
  389600    69.134273    5.6359918      2204118          147  0.007193656   -40.428832    123.19562 
  389700    67.107447    5.6087164      2204118          147  0.007193656   -39.945954    118.88148 
  389800    70.244197    5.9145003      2204118          147  0.007193656   -38.970397    127.28098 
  389900    72.109339    6.2236324      2204118          147  0.007193656   -37.568753    133.09698 
  390000    70.576702    6.1847342      2204118          147  0.007193656   -37.473792    129.56455 
  390100    69.759287    5.9383525      2204118          147  0.007193656   -39.122506    125.98121 
  390200    69.328599    5.9366006      2204118          147  0.007193656   -39.163242    124.92113 
  390300    69.229915    6.2664279      2204118          147  0.007193656   -36.957898    126.89292 
  390400    71.441312    6.5988918      2204118          147  0.007193656    -35.55951    133.52516 
  390500    78.177731    6.8993947      2204118          147  0.007193656   -35.890104    149.13807 
  390600    73.019873    6.6164536      2204118          147  0.007193656    -36.22238    136.59837 
  390700    68.967517    6.4559967      2204118          147  0.007193656   -36.123747    127.10603 
  390800    67.766855    6.5652965      2204118          147  0.007193656   -35.020782    125.36731 
  390900     70.91653    6.7815741      2204118          147  0.007193656   -34.622673    133.21996 
  391000    72.579242    6.8398158      2204118          147  0.007193656   -34.767376     137.0105 
  391100    69.171048    6.6300956      2204118          147  0.007193656   -35.030531    128.68096 
  391200    67.197443    6.4468913      2204118          147  0.007193656   -35.530752    123.50968 
  391300    68.895934    6.4586879      2204118          147  0.007193656   -35.797704    127.26266 
  391400    70.468146    6.4133323      2204118          147  0.007193656   -36.348302    130.43311 
  391500    71.101393    6.2518757      2204118          147  0.007193656   -37.329166    130.95099 
  391600    68.798942    5.9616716      2204118          147  0.007193656    -38.19306    124.63774 
  391700    66.237015    5.6952728      2204118          147  0.007193656   -38.768878    117.99845 
  391800    70.599107     5.775161      2204118          147  0.007193656   -39.371698    127.71967 
  391900    72.924615    5.8184175      2204118          147  0.007193656   -39.554321    133.04097 
  392000    70.160742    5.6388965      2204118          147  0.007193656   -39.601654    126.45221 
  392100     68.61794     5.444792      2204118          147  0.007193656   -40.263532    122.13888 
  392200    69.742606    5.4124246      2204118          147  0.007193656   -40.862351    124.20188 
  392300    73.997437    5.7529353      2204118          147  0.007193656    -39.97534    135.15907 
  392400    73.729023    5.9840005      2204118          147  0.007193656   -38.445014    136.05412 
  392500    68.589825    5.8177867      2204118          147  0.007193656   -38.172573     124.1633 
  392600    69.152383    5.8251128      2204118          147  0.007193656   -38.666428    125.00089 
  392700    70.825543    6.0273508      2204118          147  0.007193656   -38.258007    129.36928 
  392800    71.080736    6.3969304      2204118          147  0.007193656   -36.245215    131.98605 
  392900    69.663722    6.6728731      2204118          147  0.007193656   -34.187867    130.68967 
  393000     68.26158    6.6742889      2204118          147  0.007193656   -33.927869    127.63113 
  393100    69.896914    6.6497387      2204118          147  0.007193656   -34.789687    130.63976 
  393200    73.149797    6.5792801      2204118          147  0.007193656   -36.418048     136.7102 
  393300    70.609934    6.2639636      2204118          147  0.007193656   -37.710694     129.4063 
  393400    67.207398    6.1181739      2204118          147  0.007193656   -37.447981    121.61601 
  393500    68.895999    6.2913527      2204118          147  0.007193656    -36.57056    126.48995 
  393600    71.520016    6.2569392      2204118          147  0.007193656   -37.490977    131.77996 
  393700    71.240422     5.980674      2204118          147  0.007193656   -39.114328    129.49488 
  393800    68.552751    5.7978807      2204118          147  0.007193656   -39.199956    123.04817 
  393900    68.282852    5.8433845      2204118          147  0.007193656   -38.564733    123.04461 
  394000    75.002236    6.0946675      2204118          147  0.007193656   -38.873498    138.63903 
  394100    75.825971    5.9550892      2204118          147  0.007193656   -39.997487    139.46463 
  394200    70.158341    5.6706327      2204118          147  0.007193656    -40.03614    126.01204 
  394300    67.352007     5.724784      2204118          147  0.007193656   -38.658477    120.74777 
  394400    69.341888    6.0129641      2204118          147  0.007193656   -37.231904    126.88392 
  394500    72.489956     6.131687      2204118          147  0.007193656   -37.342525    134.22403 
  394600    71.120152    5.8742674      2204118          147  0.007193656   -38.573595    129.75096 
  394700    68.043294    5.6022757      2204118          147  0.007193656   -39.293409    121.74895 
  394800     68.41757    5.6843132      2204118          147  0.007193656   -38.776436    123.15175 
  394900    69.550752    5.9076323      2204118          147  0.007193656   -37.498343    127.11181 
  395000    71.011657    5.8978781      2204118          147  0.007193656    -38.02904    130.03874 
  395100    70.869363    5.6387227      2204118          147  0.007193656   -39.775189    127.95581 
  395200    66.023706    5.3015258      2204118          147  0.007193656   -40.497007    115.76547 
  395300    66.465294    5.4485887      2204118          147  0.007193656    -39.66937    117.63824 
  395400    69.464068    5.7166366      2204118          147  0.007193656   -39.017134    125.38786 
  395500    70.705917    5.8477923      2204118          147  0.007193656   -38.875432    128.46873 
  395600    70.676014    5.8871172      2204118          147  0.007193656   -38.945852    128.32754 
  395700    68.226096    5.9135936      2204118          147  0.007193656   -38.369982    123.10503 
  395800    66.360301    6.1171546      2204118          147  0.007193656   -36.667992    120.39113 
  395900    70.681299    6.6848301      2204118          147  0.007193656   -34.497002    132.78889 
  396000    71.955251    6.8234104      2204118          147  0.007193656   -34.196032    136.10501 
  396100     69.78425    6.6536444      2204118          147  0.007193656   -34.705877    130.45692 
  396200    67.677087    6.5549522      2204118          147  0.007193656   -34.587829    125.58781 
  396300    71.039567    6.5157029      2204118          147  0.007193656   -35.805507    132.32833 
  396400    75.560068    6.4546559      2204118          147  0.007193656   -37.579619    141.25317 
  396500    71.448787    6.2265723      2204118          147  0.007193656   -37.551051    131.55131 
  396600    68.919841    6.2470115      2204118          147  0.007193656   -36.317913    126.79903 
  396700    69.066482    6.3361467      2204118          147  0.007193656   -35.500989    127.96302 
  396800    72.179741    6.3768163      2204118          147  0.007193656   -36.021779    134.81058 
  396900    72.806614    6.2300174      2204118          147  0.007193656   -36.974737    135.34128 
  397000    67.652854    5.7184236      2204118          147  0.007193656   -38.505982     121.6123 
  397100    68.838828    5.4161368      2204118          147  0.007193656    -40.81547    122.10973 
  397200    71.413505    5.3811142      2204118          147  0.007193656   -41.896688    127.12217 
  397300    70.909649    5.5234019      2204118          147  0.007193656   -40.924913    126.90143 
  397400    65.906499     5.588564      2204118          147  0.007193656   -39.100237    116.88484 
  397500    66.397868     5.865508      2204118          147  0.007193656   -37.779695    119.36834 
  397600    70.560563     6.211306      2204118          147  0.007193656   -37.295546     129.7046 
  397700     70.78451    6.3495694      2204118          147  0.007193656   -36.903681    130.62649 
  397800    69.257054    6.4583548      2204118          147  0.007193656   -36.020997    127.89405 
  397900    68.317575    6.5693574      2204118          147  0.007193656   -35.271465    126.42006 
  398000    71.535791    6.7820646      2204118          147  0.007193656   -35.204312    134.10396 
  398100     73.15444    6.9913956      2204118          147  0.007193656   -34.556328    138.58291 
  398200     68.20202    7.1313105      2204118          147  0.007193656   -32.024705    129.39332 
  398300    67.316915    7.1886661      2204118          147  0.007193656   -31.440219    127.88298 
  398400    69.472827    7.2753712      2204118          147  0.007193656   -31.499785    132.92594 
  398500     70.39757    7.2975978      2204118          147  0.007193656    -31.35188     135.2625 
  398600    71.292003    6.9137709      2204118          147  0.007193656   -34.050344    134.68094 
  398700    68.661153    6.3383388      2204118          147  0.007193656   -36.763495    125.74119 
  398800    66.708119    6.0262916      2204118          147  0.007193656   -37.784991    120.09733 
  398900    69.894769    5.9699201      2204118          147  0.007193656    -38.81196    126.61241 
  399000    71.034888    5.8713713      2204118          147  0.007193656   -39.457006    128.66575 
  399100    69.930159    5.8052158      2204118          147  0.007193656   -39.366106    126.14202 
  399200    68.428968    5.9233944      2204118          147  0.007193656   -37.966594    123.98857 
  399300    69.816316    6.3957302      2204118          147  0.007193656   -35.159894    130.07879 
  399400    73.005838    6.8467916      2204118          147  0.007193656   -33.203197    139.58433 
  399500    70.868349     6.858657      2204118          147  0.007193656   -32.539564    135.18904 
  399600    68.938531    6.7124612      2204118          147  0.007193656    -32.95959    130.20159 
  399700    69.858128     6.517745      2204118          147  0.007193656   -34.548067    130.78958 
  399800    70.703459    6.2890618      2204118          147  0.007193656   -36.252005    131.08634 
  399900    70.249874    6.1079074      2204118          147  0.007193656   -37.073215     129.1916 
  400000    69.906218    5.8106833      2204118          147  0.007193656   -38.851687    126.59978 
  400100    67.983005    5.4786493      2204118          147  0.007193656   -40.378473     120.5212 
Loop time of 29.2551 on 1 procs for 400000 steps with 795 atoms

Performance: 295.333 ns/day, 0.081 hours/ns, 13672.818 timesteps/s
95.2% CPU use with 1 MPI tasks x no OpenMP threads

MPI task timing breakdown:
Section |  min time  |  avg time  |  max time  |%varavg| %total
---------------------------------------------------------------
Pair    | 15.21      | 15.21      | 15.21      |   0.0 | 51.99
Neigh   | 1.8317     | 1.8317     | 1.8317     |   0.0 |  6.26
Comm    | 0.9866     | 0.9866     | 0.9866     |   0.0 |  3.37
Output  | 2.3565     | 2.3565     | 2.3565     |   0.0 |  8.05
Modify  | 8.0589     | 8.0589     | 8.0589     |   0.0 | 27.55
Other   |            | 0.812      |            |       |  2.78

Nlocal:            795 ave         795 max         795 min
Histogram: 1 0 0 0 0 0 0 0 0 0
Nghost:            146 ave         146 max         146 min
Histogram: 1 0 0 0 0 0 0 0 0 0
Neighs:           1632 ave        1632 max        1632 min
Histogram: 1 0 0 0 0 0 0 0 0 0

Total # of neighbors = 1632
Ave neighs/atom = 2.0528302
Neighbor list builds = 4893
Dangerous builds = 6

write_data graphene_single_layer_LJ_795C_after_temp_70K.data
System init for write_data ...
  generated 0 of 0 mixed pair_coeff terms from geometric mixing rule
Total wall time: 0:00:29
