ITEM: TIMESTEP
0
ITEM: NUMBER OF ATOMS
40
ITEM: BOX BOUNDS pp pp pp
-2.0000000000000000e+00 1.1000000000000000e+01
-2.0000000000000000e+00 1.1000000000000000e+01
-2.0000000000000000e+00 2.0000000000000000e+00
ITEM: ATOMS id type x y z
1 1 0 0 0
2 1 0.71 1.22976 0
3 1 2.13 1.22976 0
4 1 2.84 0 0
5 1 4.26 0 0
6 1 4.97 1.22976 0
19 1 6.39 1.22976 0
20 1 7.1 0 0
21 1 8.52 0 0
22 1 9.23 1.22976 0
7 1 0 2.45951 0
8 1 0.71 3.68927 0
9 1 2.13 3.68927 0
10 1 2.84 2.45951 0
11 1 4.26 2.45951 0
12 1 4.97 3.68927 0
23 1 6.39 3.68927 0
24 1 7.1 2.45951 0
25 1 8.52 2.45951 0
26 1 9.23 3.68927 0
13 1 0 4.91902 0
14 1 0.71 6.14878 0
31 1 0 7.37854 0
15 1 2.13 6.14878 0
16 1 2.84 4.91902 0
17 1 4.26 4.91902 0
34 1 2.84 7.37854 0
35 1 4.26 7.37854 0
18 1 4.97 6.14878 0
27 1 6.39 6.14878 0
28 1 7.1 4.91902 0
38 1 7.1 7.37854 0
29 1 8.52 4.91902 0
30 1 9.23 6.14878 0
39 1 8.52 7.37854 0
32 1 0.71 8.60829 0
33 1 2.13 8.60829 0
36 1 4.97 8.60829 0
37 1 6.39 8.60829 0
40 1 9.23 8.60829 0
ITEM: TIMESTEP
96
ITEM: NUMBER OF ATOMS
40
ITEM: BOX BOUNDS pp pp pp
-2.0000000000000000e+00 1.1000000000000000e+01
-2.0000000000000000e+00 1.1000000000000000e+01
-2.0000000000000000e+00 2.0000000000000000e+00
ITEM: ATOMS id type x y z
1 1 -0.454209 -1.35409 1.34226e-06
2 1 0.0950074 2.262 -1.55755e-06
3 1 0.93933 0.355646 3.64787e-06
4 1 1.65747 -1.59612 -7.49113e-06
5 1 3.69312 -1.91768 1.07465e-05
6 1 3.19082 0.0785757 -2.29343e-06
19 1 5.50605 -0.348653 1.89496e-06
20 1 7.93793 -0.764173 -1.12784e-06
21 1 10.3232 -1.09631 1.63378e-07
22 1 9.40034 0.825744 5.65624e-08
7 1 -1.30481 0.57943 -7.10115e-07
8 1 -0.747185 4.16962 2.26018e-07
9 1 1.5283 3.91116 1.27172e-06
10 1 2.37123 1.99476 -1.07043e-06
11 1 4.70476 1.61182 -3.5922e-07
12 1 5.34136 5.09083 -4.96524e-07
23 1 6.20806 3.14076 2.37765e-07
24 1 7.04625 1.1741 -8.75888e-08
25 1 8.52946 2.75856 6.98375e-08
26 1 10.824 2.48742 6.83192e-07
13 1 -1.59481 6.07506 3.26006e-07
14 1 0.691798 5.83955 -4.69391e-07
31 1 -0.189959 7.75319 -2.78056e-07
15 1 2.15064 7.46575 2.71232e-07
16 1 2.99408 5.50357 -8.23442e-07
17 1 3.85049 3.55504 8.31597e-07
34 1 3.67383 9.01149 -2.68796e-06
35 1 6.03146 8.55838 2.14907e-06
18 1 4.49334 7.04745 6.83874e-07
27 1 6.83915 6.62411 -1.22622e-07
28 1 7.68879 4.69872 -1.12965e-07
38 1 8.30446 8.21816 -1.83743e-06
29 1 9.97838 4.39953 -7.554e-07
30 1 10.5452 7.98127 -8.20274e-08
39 1 9.13752 6.31041 9.48906e-07
32 1 -1.08699 9.68014 -3.04471e-07
33 1 1.21801 9.38625 2.17514e-06
36 1 5.66594 10.5873 -9.29033e-06
37 1 7.67195 10.1859 5.05789e-06
40 1 9.7463 9.92123 -8.25834e-07
ITEM: TIMESTEP
1000
ITEM: NUMBER OF ATOMS
40
ITEM: BOX BOUNDS pp pp pp
-2.0000000000000000e+00 1.1000000000000000e+01
-2.0000000000000000e+00 1.1000000000000000e+01
-2.0000000000000000e+00 2.0000000000000000e+00
ITEM: ATOMS id type x y z
1 1 -0.285612 -0.612259 1.04565
3 1 2.36326 0.729526 0.968207
7 1 0.365186 1.33656 -1.01343
4 1 1.68086 -1.20953 -0.997135
5 1 3.62017 -1.83933 1.01049
6 1 4.29518 0.0953762 -0.967113
19 1 6.257 -0.563077 1.00998
24 1 6.87122 1.40292 -0.962289
20 1 8.1858 -1.22236 -0.9738
21 1 10.1101 -1.89956 0.96095
22 1 10.7495 0.0882692 -1.00337
2 1 -0.877235 3.98083 -0.995782
8 1 10.1554 4.60659 0.980111
9 1 1.05537 3.28023 0.987678
10 1 3.00656 2.6876 -0.995602
17 1 5.57429 4.00545 -0.996206
11 1 4.955 2.04276 1.01935
23 1 7.54658 3.33208 0.971049
25 1 8.82317 0.741867 1.01022
26 1 -1.50985 2.02077 1.02198
29 1 9.51647 2.68108 -1.00102
13 1 10.8336 6.56732 -1.00365
14 1 -0.232358 5.89841 1.04547
15 1 2.36609 7.2528 0.986062
16 1 1.70908 5.27863 -1.00134
18 1 4.2892 6.58572 -1.02295
12 1 3.61214 4.68274 1.01486
27 1 6.22929 5.95388 1.03214
28 1 8.20263 5.3202 -1.02732
39 1 8.8721 7.19193 0.998759
31 1 0.404528 7.85997 -1.00176
32 1 -0.895213 10.4691 -1.02888
33 1 0.982682 9.80715 1.00436
34 1 2.97448 9.21051 -1.00865
35 1 4.90725 8.56197 0.945644
36 1 5.58963 10.4951 -0.976559
37 1 7.53707 9.8 1.00214
38 1 6.86589 7.88423 -1.01982
30 1 -1.57957 8.51914 0.984143
40 1 9.47296 9.14135 -1.00256
ITEM: TIMESTEP
2000
ITEM: NUMBER OF ATOMS
40
ITEM: BOX BOUNDS pp pp pp
-2.0000000000000000e+00 1.1000000000000000e+01
-2.0000000000000000e+00 1.1000000000000000e+01
-2.0000000000000000e+00 2.0000000000000000e+00
ITEM: ATOMS id type x y z
1 1 -0.203646 -0.579219 0.973559
3 1 2.38848 0.641684 1.0016
4 1 1.73414 -1.28218 -0.999782
5 1 3.73703 -1.92727 1.00021
6 1 4.30494 0.0696665 -1.00376
19 1 6.21453 -0.587502 0.863055
20 1 8.22934 -1.19809 -1.0299
21 1 10.2071 -1.78075 0.982186
22 1 10.8174 0.151537 -1.00665
25 1 8.78701 0.767466 0.998182
7 1 0.452702 1.40522 -1.02181
2 1 -1.02066 4.00154 -0.970471
9 1 1.08005 3.27577 0.976863
26 1 -1.58142 2.09236 1.01182
10 1 3.02695 2.6883 -0.984173
24 1 6.94091 1.36959 -0.965632
17 1 5.56499 3.9156 -1.01832
11 1 4.93086 1.92458 0.991173
23 1 7.45348 3.33977 0.991314
29 1 9.45721 2.70559 -0.994029
14 1 -0.297028 5.91865 1.05789
15 1 2.29761 7.21073 1.03421
16 1 1.62881 5.19961 -0.983657
18 1 4.29239 6.57409 -0.99187
12 1 3.65254 4.62383 1.02501
27 1 6.22601 5.89233 0.976309
8 1 10.0251 4.66373 1.0059
13 1 10.7986 6.63296 -0.946411
28 1 8.1749 5.32427 -0.997444
39 1 8.88478 7.2416 1.03252
31 1 0.397734 7.86653 -0.945748
32 1 -0.905709 10.5409 -1.0341
33 1 1.01865 9.80447 1.01539
30 1 -1.54302 8.59092 1.01942
34 1 2.94207 9.14911 -1.01161
35 1 4.9693 8.47533 0.983034
36 1 5.6096 10.4683 -1.0125
37 1 7.53637 9.89035 0.984436
38 1 6.87614 7.91028 -0.998444
40 1 9.49378 9.19413 -1.00776
ITEM: TIMESTEP
3000
ITEM: NUMBER OF ATOMS
40
ITEM: BOX BOUNDS pp pp pp
-2.0000000000000000e+00 1.1000000000000000e+01
-2.0000000000000000e+00 1.1000000000000000e+01
-2.0000000000000000e+00 2.0000000000000000e+00
ITEM: ATOMS id type x y z
1 1 -0.212897 -0.48852 1.00705
3 1 2.33839 0.731658 1.01878
4 1 1.74819 -1.20317 -1.0122
5 1 3.60808 -1.89196 0.977006
6 1 4.25073 0.0246833 -1.01038
19 1 6.20526 -0.630207 0.884363
20 1 8.20103 -1.22777 -1.00177
21 1 10.1776 -1.81252 0.991917
22 1 10.7458 0.0787799 -1.0067
25 1 8.82853 0.706902 0.989942
7 1 0.358846 1.39849 -1.04472
2 1 -0.929922 4.0074 -0.975127
9 1 1.01695 3.29241 0.985029
26 1 -1.60312 2.05025 1.01983
10 1 2.98838 2.66245 -0.971708
24 1 6.89576 1.32523 -1.00583
17 1 5.53963 3.90639 -0.955765
11 1 4.92617 1.99847 0.993769
23 1 7.48847 3.28781 1.05033
29 1 9.43662 2.67195 -0.969763
14 1 -0.292911 5.94178 1.02522
15 1 2.41048 7.20692 0.973367
16 1 1.6787 5.23765 -1.00204
18 1 4.42474 6.61811 -0.979198
12 1 3.6515 4.65643 1.02766
27 1 6.26249 5.88428 1.05865
8 1 10.0663 4.60087 0.964288
13 1 10.7858 6.64325 -1.00816
28 1 8.10389 5.23724 -0.964081
39 1 8.89471 7.22933 1.00575
31 1 0.416961 7.87005 -1.05972
32 1 -0.83035 10.5668 -1.04402
33 1 1.02125 9.80454 0.971142
30 1 -1.60549 8.63667 0.97269
34 1 3.02297 9.1674 -1.01319
35 1 4.98308 8.52445 1.04849
36 1 5.60764 10.4147 -0.965631
37 1 7.57801 9.84842 1.01375
38 1 6.91698 7.94372 -0.988397
40 1 9.49483 9.24449 -1.00063
ITEM: TIMESTEP
4000
ITEM: NUMBER OF ATOMS
40
ITEM: BOX BOUNDS pp pp pp
-2.0000000000000000e+00 1.1000000000000000e+01
-2.0000000000000000e+00 1.1000000000000000e+01
-2.0000000000000000e+00 2.0000000000000000e+00
ITEM: ATOMS id type x y z
1 1 -0.24339 -0.62949 1.04508
3 1 2.30456 0.737275 0.992013
4 1 1.67961 -1.23406 -1.00071
5 1 3.61584 -1.83041 0.988073
6 1 4.24938 0.142648 -0.957738
19 1 6.23229 -0.567028 0.99811
20 1 8.15575 -1.1845 -0.952643
21 1 10.1056 -1.91011 1.02728
22 1 10.7733 0.0259017 -0.992465
25 1 8.85813 0.716671 1.01104
7 1 0.401423 1.38534 -1.00661
2 1 -0.925863 3.97548 -0.998248
9 1 1.04509 3.34406 0.984332
26 1 -1.50789 1.98633 1.01539
10 1 3.04744 2.70597 -1.02291
24 1 6.86535 1.34614 -0.956246
17 1 5.62016 4.01974 -1.02432
11 1 4.9482 2.08554 0.97575
23 1 7.52407 3.30597 0.989054
29 1 9.54208 2.60501 -0.993061
14 1 -0.263673 5.89078 1.05866
15 1 2.37497 7.23391 0.957995
16 1 1.71608 5.25152 -1.00163
18 1 4.27088 6.60961 -1.03892
12 1 3.64959 4.71008 0.998508
27 1 6.28654 5.94818 0.980068
8 1 10.1114 4.54153 0.974617
13 1 10.8268 6.55378 -0.969163
28 1 8.26804 5.23471 -1.02161
39 1 8.85422 7.25116 1.00561
31 1 0.380742 7.86859 -0.989406
32 1 -0.950827 10.4539 -1.00967
33 1 1.00706 9.80187 1.01913
30 1 -1.61343 8.56297 0.998545
34 1 3.03074 9.21365 -1.03587
35 1 4.94266 8.54841 0.94697
36 1 5.60482 10.5424 -0.983003
37 1 7.49071 9.8572 1.00969
38 1 6.9238 7.89501 -1.01016
40 1 9.39774 9.17012 -1.01153
ITEM: TIMESTEP
5000
ITEM: NUMBER OF ATOMS
40
ITEM: BOX BOUNDS pp pp pp
-2.0000000000000000e+00 1.1000000000000000e+01
-2.0000000000000000e+00 1.1000000000000000e+01
-2.0000000000000000e+00 2.0000000000000000e+00
ITEM: ATOMS id type x y z
1 1 -0.296277 -0.615232 1.05415
3 1 2.39823 0.691229 0.976035
4 1 1.70557 -1.31632 -0.993692
5 1 3.6532 -1.83292 1.00971
6 1 4.34936 0.240503 -1.01442
19 1 6.22012 -0.522206 0.933584
20 1 8.22977 -1.23625 -0.975271
21 1 10.1821 -1.89777 1.03889
22 1 10.7936 0.0563079 -1.00827
25 1 8.83522 0.748269 1.00603
7 1 0.456968 1.33673 -1.0266
2 1 -0.923038 3.96656 -1.01407
9 1 1.05213 3.30424 0.914972
26 1 -1.52933 1.97395 1.08173
10 1 3.00072 2.6995 -1.01605
24 1 6.98332 1.40266 -0.999086
17 1 5.56519 4.00289 -1.00992
11 1 4.95236 2.11311 0.95201
23 1 7.59927 3.32044 0.931428
29 1 9.55523 2.67657 -0.966286
14 1 -0.263846 5.94014 1.00613
15 1 2.36126 7.20307 1.00807
16 1 1.61719 5.26619 -1.00821
18 1 4.26681 6.58461 -1.01861
12 1 3.65568 4.67171 1.04123
27 1 6.26245 5.91706 0.983321
8 1 10.1292 4.61469 0.968831
13 1 10.7947 6.54287 -0.978647
28 1 8.20731 5.29573 -1.0328
39 1 8.82757 7.18568 1.03761
31 1 0.333619 7.90232 -0.990274
32 1 -0.908977 10.3755 -0.992133
33 1 0.99322 9.80846 1.049
30 1 -1.6468 8.5149 1.03383
34 1 2.91522 9.19063 -0.936889
35 1 4.9315 8.57175 0.959473
36 1 5.54318 10.5123 -1.00062
37 1 7.48421 9.92733 0.974671
38 1 6.88594 7.89818 -1.01788
40 1 9.42685 9.13052 -0.960967
ITEM: TIMESTEP
6000
ITEM: NUMBER OF ATOMS
40
ITEM: BOX BOUNDS pp pp pp
-2.0000000000000000e+00 1.1000000000000000e+01
-2.0000000000000000e+00 1.1000000000000000e+01
-2.0000000000000000e+00 2.0000000000000000e+00
ITEM: ATOMS id type x y z
1 1 -0.266412 -0.537236 0.962312
3 1 2.33106 0.714231 0.968533
4 1 1.6939 -1.19642 -1.06055
5 1 3.62728 -1.89412 0.976485
6 1 4.30751 0.0426219 -0.975254
19 1 6.29249 -0.601155 0.927816
20 1 8.20536 -1.26695 -0.99449
21 1 10.1577 -1.84325 0.981458
22 1 10.7514 0.0974999 -1.03923
25 1 8.87503 0.795584 0.988015
7 1 0.339251 1.37806 -1.01105
2 1 -0.94943 4.05514 -1.00013
9 1 0.982866 3.29281 1.00265
26 1 -1.54348 2.08442 1.03015
10 1 2.96886 2.59249 -1.00822
24 1 6.8986 1.39437 -0.973976
17 1 5.57946 4.00821 -0.962076
11 1 4.92707 2.06019 0.984431
23 1 7.53998 3.36106 1.03234
29 1 9.49302 2.70429 -0.99723
14 1 -0.247647 5.99562 0.994192
15 1 2.35298 7.22782 0.983835
16 1 1.67991 5.22193 -1.00296
18 1 4.32366 6.56265 -0.993039
12 1 3.54576 4.61726 1.01819
27 1 6.23848 5.90668 1.02547
8 1 10.1026 4.66439 0.999353
13 1 10.8069 6.5948 -0.980528
28 1 8.18577 5.29436 -0.987737
39 1 8.88787 7.22232 1.01688
31 1 0.430622 7.86039 -1.00989
32 1 -0.87992 10.5031 -1.05741
33 1 1.03282 9.84072 0.987526
30 1 -1.54997 8.49285 0.993066
34 1 2.99745 9.17953 -0.994143
35 1 4.91388 8.49999 1.01845
36 1 5.62528 10.4149 -0.953224
37 1 7.57312 9.76327 1.05205
38 1 6.84587 7.82852 -0.934419
40 1 9.52305 9.23289 -1.00762
ITEM: TIMESTEP
7000
ITEM: NUMBER OF ATOMS
40
ITEM: BOX BOUNDS pp pp pp
-2.0000000000000000e+00 1.1000000000000000e+01
-2.0000000000000000e+00 1.1000000000000000e+01
-2.0000000000000000e+00 2.0000000000000000e+00
ITEM: ATOMS id type x y z
1 1 -0.303098 -0.556669 1.02869
3 1 2.29696 0.680244 1.03335
4 1 1.6207 -1.20037 -0.999786
5 1 3.64513 -1.91515 1.00181
6 1 4.22554 0.0813318 -0.927135
19 1 6.22901 -0.593833 0.912137
20 1 8.22752 -1.30276 -1.00552
21 1 10.1041 -1.87215 0.998847
22 1 10.7588 0.170825 -1.02933
25 1 8.80301 0.746681 0.993193
7 1 0.393061 1.42863 -1.05615
2 1 -0.948478 4.01291 -1.01869
9 1 1.02749 3.38773 1.0007
26 1 -1.56092 2.11539 0.968548
10 1 2.96256 2.67189 -0.987603
24 1 6.90803 1.26527 -0.98241
17 1 5.53211 3.95766 -0.927915
11 1 4.97276 1.98596 1.0335
23 1 7.48547 3.34261 1.04673
29 1 9.47162 2.74855 -1.00841
14 1 -0.179091 6.00651 1.0092
15 1 2.381 7.19939 1.00919
16 1 1.69365 5.26745 -0.951442
18 1 4.29526 6.56998 -1.01267
12 1 3.60281 4.60794 1.00328
27 1 6.19349 5.90167 1.02787
8 1 10.1838 4.68844 0.987786
13 1 10.8915 6.61589 -0.997595
28 1 8.20606 5.30151 -0.949865
39 1 8.88037 7.24856 0.986858
31 1 0.506603 7.90817 -1.02919
32 1 -0.970848 10.495 -1.03314
33 1 1.02364 9.90204 0.970785
30 1 -1.54174 8.53968 0.983235
34 1 2.99581 9.15451 -1.00271
35 1 4.95799 8.50843 0.960945
36 1 5.63854 10.4504 -0.987083
37 1 7.59244 9.73693 0.988907
38 1 6.85919 7.81478 -1.01062
40 1 9.53816 9.09386 -1.0283
ITEM: TIMESTEP
8000
ITEM: NUMBER OF ATOMS
40
ITEM: BOX BOUNDS pp pp pp
-2.0000000000000000e+00 1.1000000000000000e+01
-2.0000000000000000e+00 1.1000000000000000e+01
-2.0000000000000000e+00 2.0000000000000000e+00
ITEM: ATOMS id type x y z
1 1 -0.262906 -0.54411 1.06057
3 1 2.37854 0.714269 0.987389
4 1 1.67428 -1.2095 -0.976952
5 1 3.6249 -1.84066 1.04792
6 1 4.29006 0.117543 -0.977723
19 1 6.24655 -0.523202 0.956617
20 1 8.15301 -1.21417 -1.01054
21 1 10.1346 -1.86613 1.01624
22 1 10.8373 0.0494566 -0.995528
25 1 8.84776 0.730693 0.989264
7 1 0.456706 1.37351 -1.02432
2 1 -0.907655 3.93089 -1.01444
9 1 1.10402 3.33368 0.98263
26 1 -1.54398 1.99173 0.995941
10 1 3.02671 2.67936 -1.00072
24 1 6.934 1.36402 -0.993011
17 1 5.5523 3.9871 -1.02505
11 1 4.96367 2.06698 0.962405
23 1 7.54963 3.3232 0.94263
29 1 9.5135 2.72085 -1.01255
14 1 -0.225608 5.91843 1.02854
15 1 2.32945 7.23624 1.06282
16 1 1.71799 5.28882 -0.96543
18 1 4.29661 6.62924 -0.990419
12 1 3.65641 4.65157 1.01873
27 1 6.22784 5.9903 1.00501
8 1 10.1185 4.63772 0.977514
13 1 10.8069 6.54964 -1.02615
28 1 8.12502 5.26057 -1.03999
39 1 8.86324 7.19509 0.961175
31 1 0.345572 7.84661 -0.984616
32 1 -0.895813 10.4347 -1.01754
33 1 1.00721 9.81692 1.00991
30 1 -1.57688 8.50181 0.997603
34 1 2.88189 9.15907 -0.929672
35 1 4.88946 8.58371 0.98346
36 1 5.56828 10.493 -0.958463
37 1 7.52804 9.79364 0.981422
38 1 6.86983 7.87521 -1.02433
40 1 9.49313 9.11802 -1.00034
ITEM: TIMESTEP
9000
ITEM: NUMBER OF ATOMS
40
ITEM: BOX BOUNDS pp pp pp
-2.0000000000000000e+00 1.1000000000000000e+01
-2.0000000000000000e+00 1.1000000000000000e+01
-2.0000000000000000e+00 2.0000000000000000e+00
ITEM: ATOMS id type x y z
1 1 -0.17704 -0.533012 1.0001
3 1 2.34309 0.756603 0.944401
4 1 1.69461 -1.22248 -1.00298
5 1 3.63092 -1.8857 1.00431
6 1 4.2715 0.0821814 -1.00381
19 1 6.25838 -0.50969 0.960257
20 1 8.17799 -1.18776 -1.00597
21 1 10.1687 -1.86188 0.991814
22 1 10.8412 0.0307612 -1.00626
25 1 8.9051 0.739508 0.980212
7 1 0.457276 1.35732 -1.0039
2 1 -0.991888 3.94319 -0.970473
9 1 1.07542 3.3373 1.01611
26 1 -1.51559 1.95323 1.05849
10 1 3.05627 2.65385 -1.01872
24 1 6.88623 1.3585 -0.971589
17 1 5.59085 4.04535 -1.02735
11 1 4.9827 2.06451 0.960123
23 1 7.51617 3.31652 0.952648
29 1 9.47177 2.63951 -1.02314
14 1 -0.272912 5.81111 0.983736
15 1 2.29836 7.22614 1.00363
16 1 1.69026 5.2267 -0.986252
18 1 4.33022 6.6451 -1.00143
12 1 3.62406 4.6752 0.998022
27 1 6.27738 5.98478 0.989819
8 1 10.0555 4.60713 1.00143
13 1 10.7657 6.57869 -0.996611
28 1 8.154 5.2136 -0.993866
39 1 8.80091 7.21617 1.01743
31 1 0.290257 7.83167 -0.969024
32 1 -0.889796 10.4465 -1.04713
33 1 1.07774 9.78846 1.01204
30 1 -1.55117 8.49921 1.03453
34 1 3.01275 9.16127 -0.977526
35 1 4.91796 8.58471 0.983047
36 1 5.57842 10.5632 -0.962152
37 1 7.47352 9.85598 1.02594
38 1 6.87664 7.93238 -0.99192
40 1 9.44652 9.24004 -0.957987
ITEM: TIMESTEP
10000
ITEM: NUMBER OF ATOMS
40
ITEM: BOX BOUNDS pp pp pp
-2.0000000000000000e+00 1.1000000000000000e+01
-2.0000000000000000e+00 1.1000000000000000e+01
-2.0000000000000000e+00 2.0000000000000000e+00
ITEM: ATOMS id type x y z
1 1 -0.285419 -0.58169 1.04408
3 1 2.36526 0.690321 1.01208
4 1 1.67182 -1.23354 -1.01844
5 1 3.59793 -1.92524 0.927764
6 1 4.26024 0.123214 -0.987518
19 1 6.19949 -0.564034 0.974969
20 1 8.16447 -1.21672 -1.02226
21 1 10.1228 -1.81638 1.02234
22 1 10.7941 0.131242 -0.975788
25 1 8.7737 0.698425 1.00857
7 1 0.450034 1.41872 -1.0491
2 1 -0.956257 3.98478 -0.98758
9 1 0.985597 3.34415 0.998449
26 1 -1.5763 2.01792 0.997668
10 1 2.96302 2.69902 -0.999463
24 1 6.8698 1.30846 -0.941441
17 1 5.54511 3.94721 -0.958274
11 1 5.00222 2.00825 1.00708
23 1 7.56965 3.27418 1.02818
29 1 9.40687 2.65286 -1.03184
14 1 -0.262399 5.91697 1.02369
15 1 2.4066 7.16346 0.953659
16 1 1.72226 5.33056 -1.0206
18 1 4.37482 6.54217 -1.01714
12 1 3.65867 4.56654 0.989611
27 1 6.26916 5.96428 1.03759
8 1 10.1617 4.60328 0.999681
13 1 10.7946 6.5841 -0.9451
28 1 8.21461 5.23359 -0.949472
39 1 8.86207 7.26089 1.04141
31 1 0.373328 7.84388 -0.992638
32 1 -0.879765 10.5007 -1.01598
33 1 1.0536 9.83946 0.99084
30 1 -1.63315 8.61674 1.03542
34 1 2.98444 9.12292 -1.0883
35 1 4.99003 8.55677 0.899227
36 1 5.5918 10.509 -1.01103
37 1 7.55148 9.89263 0.98992
38 1 6.95734 7.89245 -1.00305
40 1 9.4847 9.26435 -0.967198
ITEM: TIMESTEP
11000
ITEM: NUMBER OF ATOMS
40
ITEM: BOX BOUNDS pp pp pp
-2.0000000000000000e+00 1.1000000000000000e+01
-2.0000000000000000e+00 1.1000000000000000e+01
-2.0000000000000000e+00 2.0000000000000000e+00
ITEM: ATOMS id type x y z
1 1 -0.32905 -0.550471 1.0261
3 1 2.32327 0.739779 1.04642
4 1 1.60675 -1.20485 -0.950035
5 1 3.64881 -1.88883 1.02114
6 1 4.25406 0.0269319 -0.966614
19 1 6.22099 -0.590502 0.951742
20 1 8.13666 -1.23593 -1.01866
21 1 10.1082 -1.84798 1.0196
22 1 10.7744 0.0987888 -0.954692
25 1 8.80296 0.667294 0.995495
7 1 0.39587 1.38081 -1.00438
2 1 -0.913776 4.00157 -0.99025
9 1 1.04614 3.3203 0.999101
26 1 -1.58994 2.08527 1.02453
10 1 3.02378 2.6532 -0.971012
24 1 6.8908 1.38073 -0.978285
17 1 5.58476 3.99216 -1.01787
11 1 4.94187 2.02811 0.998464
23 1 7.53012 3.26847 1.00596
29 1 9.48201 2.6831 -0.971847
14 1 -0.207534 5.9961 0.973227
15 1 2.37439 7.23422 1.01311
16 1 1.7521 5.29542 -0.978694
18 1 4.37563 6.52526 -0.992802
12 1 3.62811 4.57893 1.02125
27 1 6.33804 5.8517 1.00162
8 1 10.1548 4.65526 0.999543
13 1 10.7849 6.60859 -1.04524
28 1 8.23465 5.24106 -1.01317
39 1 8.89014 7.20613 0.946409
31 1 0.34424 7.9374 -1.03392
32 1 -0.95285 10.5403 -1.04994
33 1 1.05329 9.87618 0.994815
30 1 -1.57574 8.56491 0.930625
34 1 2.96301 9.17906 -0.972303
35 1 4.9738 8.46754 1.0306
36 1 5.56042 10.4835 -0.984244
37 1 7.50671 9.79494 0.972182
38 1 6.95722 7.86923 -1.03655
40 1 9.50594 9.25224 -1.04145
ITEM: TIMESTEP
12000
ITEM: NUMBER OF ATOMS
40
ITEM: BOX BOUNDS pp pp pp
-2.0000000000000000e+00 1.1000000000000000e+01
-2.0000000000000000e+00 1.1000000000000000e+01
-2.0000000000000000e+00 2.0000000000000000e+00
ITEM: ATOMS id type x y z
1 1 -0.299796 -0.627157 0.986592
3 1 2.33841 0.721277 0.994227
4 1 1.68784 -1.20628 -1.00205
5 1 3.696 -1.83171 0.971851
6 1 4.2944 0.0461601 -0.969919
19 1 6.28311 -0.555103 1.02366
20 1 8.22412 -1.26385 -0.973468
21 1 10.1125 -1.89446 1.04597
22 1 10.7949 0.115634 -1.0324
25 1 8.91999 0.730157 0.993625
7 1 0.403128 1.34247 -1.04539
2 1 -0.963883 4.01729 -0.96045
9 1 1.01518 3.29927 0.970443
26 1 -1.50964 2.03885 1.03214
10 1 2.98778 2.69034 -0.998249
24 1 6.90953 1.43225 -1.00587
17 1 5.5759 4.1038 -1.01904
11 1 4.9669 2.02855 0.986966
23 1 7.56672 3.37055 0.971397
29 1 9.50204 2.65465 -1.00727
14 1 -0.258284 5.92782 1.02543
15 1 2.2936 7.23553 0.975177
16 1 1.67446 5.26885 -0.939393
18 1 4.29954 6.56861 -1.04916
12 1 3.57007 4.61437 0.981664
27 1 6.23472 5.95336 0.962109
8 1 10.1767 4.58562 1.00457
13 1 10.8033 6.54656 -0.991096
28 1 8.21361 5.23977 -1.043
39 1 8.86386 7.16834 0.98874
31 1 0.407259 7.95873 -0.999957
32 1 -0.969056 10.4696 -1.00036
33 1 1.02724 9.86097 0.973428
30 1 -1.54825 8.52233 1.02394
34 1 3.03461 9.23597 -0.964683
35 1 4.87486 8.52515 1.03586
36 1 5.60171 10.4728 -0.931592
37 1 7.48381 9.78025 0.997783
38 1 6.81115 7.87534 -1.02162
40 1 9.50003 9.14319 -0.990601
ITEM: TIMESTEP
13000
ITEM: NUMBER OF ATOMS
40
ITEM: BOX BOUNDS pp pp pp
-2.0000000000000000e+00 1.1000000000000000e+01
-2.0000000000000000e+00 1.1000000000000000e+01
-2.0000000000000000e+00 2.0000000000000000e+00
ITEM: ATOMS id type x y z
1 1 -0.269447 -0.63948 1.00259
3 1 2.396 0.713416 0.964951
4 1 1.73979 -1.18679 -1.03257
5 1 3.68405 -1.86614 0.919363
6 1 4.36262 0.138401 -1.02034
19 1 6.28424 -0.524159 0.964397
20 1 8.20768 -1.20121 -1.03203
21 1 10.1624 -1.95428 1.01807
22 1 10.8243 0.0658558 -1.00879
25 1 8.84161 0.713211 0.988425
7 1 0.393663 1.31472 -1.0009
2 1 -0.908292 3.98345 -1.01142
9 1 0.944167 3.29108 1.00255
26 1 -1.5702 2.0194 1.02139
10 1 2.93182 2.65629 -1.0252
24 1 6.96065 1.4413 -0.994168
17 1 5.50143 4.0046 -0.987653
11 1 4.98563 2.04331 0.954859
23 1 7.52274 3.38892 1.01824
29 1 9.47434 2.72555 -0.996009
14 1 -0.26729 5.9277 0.995673
15 1 2.38031 7.18357 0.957065
16 1 1.67326 5.27083 -1.00453
18 1 4.24405 6.59426 -1.01472
12 1 3.56112 4.61573 1.01264
27 1 6.1214 6.00326 1.0387
8 1 10.1613 4.63146 1.03925
13 1 10.8004 6.54863 -0.91545
28 1 8.15338 5.2623 -1.00448
39 1 8.83281 7.19761 1.06707
31 1 0.373839 7.827 -0.962568
32 1 -0.849494 10.4446 -0.99596
33 1 1.10311 9.77143 1.04936
30 1 -1.55879 8.51806 1.02886
34 1 2.94538 9.18508 -1.00041
35 1 4.89057 8.5954 0.953698
36 1 5.60965 10.4797 -1.04961
37 1 7.56578 9.8751 0.978393
38 1 6.87034 7.97327 -0.940229
40 1 9.51959 9.13345 -0.978514
ITEM: TIMESTEP
14000
ITEM: NUMBER OF ATOMS
40
ITEM: BOX BOUNDS pp pp pp
-2.0000000000000000e+00 1.1000000000000000e+01
-2.0000000000000000e+00 1.1000000000000000e+01
-2.0000000000000000e+00 2.0000000000000000e+00
ITEM: ATOMS id type x y z
1 1 -0.301445 -0.532923 1.00024
3 1 2.31148 0.716825 1.03252
4 1 1.63384 -1.27478 -0.993446
5 1 3.62114 -1.87291 1.01928
6 1 4.22278 0.0135035 -0.939883
19 1 6.22963 -0.550596 1.00828
20 1 8.21694 -1.23327 -0.970357
21 1 10.1596 -1.93989 1.02547
22 1 10.8026 0.103564 -1.0023
25 1 8.85289 0.712021 1.01714
7 1 0.435672 1.37884 -0.986206
2 1 -0.967267 3.98281 -1.04613
9 1 1.03552 3.27569 1.00192
26 1 -1.56247 2.03416 0.99099
10 1 3.01715 2.66606 -0.977587
24 1 6.83515 1.393 -0.999378
17 1 5.54527 4.02939 -0.991352
11 1 4.90526 2.03827 0.985044
23 1 7.50662 3.3258 0.986258
29 1 9.48065 2.69205 -1.00456
14 1 -0.177807 5.90355 0.898109
15 1 2.33525 7.23045 0.992113
16 1 1.77334 5.25078 -0.981492
18 1 4.28263 6.55127 -0.992225
12 1 3.67471 4.61842 1.01722
27 1 6.26466 5.9173 1.01035
8 1 10.1132 4.69714 0.976038
13 1 10.8521 6.63777 -1.00441
28 1 8.20615 5.3766 -1.06226
39 1 8.81151 7.272 0.994753
31 1 0.42182 7.89277 -1.03714
32 1 -0.900717 10.4499 -1.03479
33 1 1.03832 9.80377 1.02393
30 1 -1.49082 8.50513 0.955637
34 1 3.02311 9.18141 -0.969223
35 1 4.90446 8.4949 1.0371
36 1 5.60998 10.5126 -0.951736
37 1 7.51184 9.85167 1.00611
38 1 6.86655 7.97633 -0.978942
40 1 9.49863 9.0845 -1.05509
ITEM: TIMESTEP
15000
ITEM: NUMBER OF ATOMS
40
ITEM: BOX BOUNDS pp pp pp
-2.0000000000000000e+00 1.1000000000000000e+01
-2.0000000000000000e+00 1.1000000000000000e+01
-2.0000000000000000e+00 2.0000000000000000e+00
ITEM: ATOMS id type x y z
1 1 -0.250157 -0.540576 1.003
3 1 2.34949 0.765946 1.01123
4 1 1.65271 -1.16142 -1.00336
5 1 3.56898 -1.89786 0.992096
6 1 4.22289 -0.026917 -0.95141
19 1 6.14854 -0.63248 1.01329
20 1 8.17768 -1.21007 -0.955552
21 1 10.1293 -1.85866 1.03657
22 1 10.7607 0.0834878 -1.02822
25 1 8.84751 0.740738 1.03402
7 1 0.432921 1.46138 -1.06828
2 1 -0.881351 4.0212 -1.01737
9 1 1.02984 3.37197 0.95309
26 1 -1.56758 2.04813 1.00233
10 1 2.98956 2.66594 -0.986178
24 1 6.91164 1.38119 -0.984995
17 1 5.65633 3.92229 -1.00007
11 1 4.92744 1.9758 1.03387
23 1 7.55956 3.33088 0.995155
29 1 9.49217 2.64485 -0.977318
14 1 -0.239607 5.97747 0.992661
15 1 2.37011 7.23693 0.999742
16 1 1.77464 5.27397 -0.98567
18 1 4.36177 6.60231 -1.03613
12 1 3.7044 4.61931 0.948468
27 1 6.25588 5.95805 0.991429
8 1 10.1434 4.61324 0.99084
13 1 10.8012 6.59734 -0.997557
28 1 8.22933 5.26047 -1.08305
39 1 8.82651 7.22009 0.969625
31 1 0.350935 7.86214 -1.00308
32 1 -0.916185 10.5492 -1.00282
33 1 1.01071 9.78648 0.995701
30 1 -1.57468 8.61263 1.00275
34 1 2.99351 9.16323 -0.96478
35 1 4.93724 8.53013 1.06862
36 1 5.57658 10.4485 -0.951643
37 1 7.52836 9.76839 0.980713
38 1 6.87914 7.86777 -1.00441
40 1 9.42858 9.13241 -1.01328
ITEM: TIMESTEP
16000
ITEM: NUMBER OF ATOMS
40
ITEM: BOX BOUNDS pp pp pp
-2.0000000000000000e+00 1.1000000000000000e+01
-2.0000000000000000e+00 1.1000000000000000e+01
-2.0000000000000000e+00 2.0000000000000000e+00
ITEM: ATOMS id type x y z
1 1 -0.251506 -0.522637 1.05438
3 1 2.37228 0.72744 0.990428
4 1 1.71704 -1.18793 -0.970109
5 1 3.66582 -1.87277 0.925025
6 1 4.29473 0.0914912 -1.04229
19 1 6.21783 -0.485624 0.934621
24 1 6.95976 1.38761 -1.01942
20 1 8.18277 -1.20059 -1.00759
21 1 10.1089 -1.87043 1.00674
22 1 10.8352 0.0763185 -1.01421
25 1 8.82696 0.673713 0.98437
7 1 0.416794 1.41097 -0.997214
2 1 -0.905661 3.98718 -0.974164
9 1 1.00687 3.37303 1.02722
26 1 -1.52371 2.0395 1.00038
10 1 2.95713 2.70958 -0.988852
17 1 5.5389 3.88434 -0.977651
11 1 4.94796 2.02853 0.981554
23 1 7.5333 3.2729 1.02296
29 1 9.47071 2.59446 -0.982921
14 1 -0.311802 5.95693 0.986338
15 1 2.3036 7.25464 0.98271
16 1 1.68798 5.34552 -0.953931
18 1 4.28342 6.60131 -1.00649
12 1 3.65725 4.67997 0.986506
27 1 6.24982 5.85423 1.06312
8 1 10.1312 4.56074 1.03652
13 1 10.7512 6.53469 -0.996851
28 1 8.21762 5.20679 -0.993668
39 1 8.85239 7.22585 0.99371
31 1 0.372019 7.8954 -0.970177
32 1 -0.898952 10.5008 -0.981868
33 1 1.02905 9.82864 1.02298
30 1 -1.59947 8.53216 0.994175
34 1 2.96519 9.16745 -1.02422
35 1 4.96151 8.51289 0.979587
36 1 5.66009 10.4388 -1.03941
37 1 7.54656 9.89922 0.972306
38 1 6.87389 7.90751 -0.975126
40 1 9.49544 9.14528 -1.02948
ITEM: TIMESTEP
17000
ITEM: NUMBER OF ATOMS
40
ITEM: BOX BOUNDS pp pp pp
-2.0000000000000000e+00 1.1000000000000000e+01
-2.0000000000000000e+00 1.1000000000000000e+01
-2.0000000000000000e+00 2.0000000000000000e+00
ITEM: ATOMS id type x y z
1 1 -0.182833 -0.58728 1.02314
3 1 2.31627 0.774499 1.00135
4 1 1.71482 -1.26768 -0.991347
5 1 3.67742 -1.83704 1.02927
6 1 4.27552 0.131998 -0.975355
19 1 6.26246 -0.460138 1.01439
20 1 8.18069 -1.16328 -1.02382
21 1 10.1366 -1.84452 1.0091
22 1 10.7961 0.0314378 -1.01494
25 1 8.85906 0.738617 0.993947
7 1 0.347031 1.32303 -1.00657
2 1 -0.949341 3.93616 -0.942998
9 1 0.988367 3.28309 1.0437
26 1 -1.5744 1.94608 1.01975
10 1 2.97394 2.66735 -0.959058
24 1 6.9365 1.45205 -1.02423
17 1 5.51948 4.00623 -1.02624
11 1 4.94001 2.04481 0.967617
23 1 7.50505 3.38859 0.933134
29 1 9.46246 2.60436 -1.01344
14 1 -0.294788 5.96565 0.96199
15 1 2.32472 7.23522 0.975275
16 1 1.68256 5.2262 -1.00015
18 1 4.27192 6.51156 -0.97385
12 1 3.56748 4.62685 1.00056
27 1 6.27011 5.86364 1.01235
8 1 10.1448 4.55975 1.08607
13 1 10.7482 6.5287 -0.974743
28 1 8.217 5.32214 -1.07347
39 1 8.79842 7.21986 0.994738
31 1 0.395829 7.92836 -0.955809
32 1 -0.896919 10.4742 -1.07456
33 1 1.04703 9.80104 1.01344
30 1 -1.59758 8.54491 0.955476
34 1 3.10255 9.17854 -0.978411
35 1 5.00619 8.54195 0.994043
36 1 5.66734 10.5454 -0.956897
37 1 7.56569 9.86729 0.987587
38 1 6.8899 7.89131 -1.01528
40 1 9.50434 9.16486 -1.03578
ITEM: TIMESTEP
18000
ITEM: NUMBER OF ATOMS
40
ITEM: BOX BOUNDS pp pp pp
-2.0000000000000000e+00 1.1000000000000000e+01
-2.0000000000000000e+00 1.1000000000000000e+01
-2.0000000000000000e+00 2.0000000000000000e+00
ITEM: ATOMS id type x y z
1 1 -0.28551 -0.607872 0.963193
3 1 2.31737 0.683035 0.979322
4 1 1.65978 -1.18179 -1.00434
5 1 3.66477 -1.88396 0.974088
6 1 4.32308 0.0735444 -1.01229
19 1 6.187 -0.566839 1.00763
20 1 8.13408 -1.14405 -0.958645
21 1 10.1419 -1.86477 1.0206
22 1 10.7457 0.0269543 -1.00672
25 1 8.86631 0.772199 1.03662
7 1 0.387408 1.37284 -1.09097
2 1 -0.892157 4.00614 -1.03649
9 1 1.04248 3.29019 0.956553
26 1 -1.58274 2.03431 0.956798
10 1 2.92684 2.57967 -1.00798
24 1 6.94775 1.4285 -0.964283
17 1 5.61941 4.00363 -0.985158
11 1 4.92009 2.07137 1.01561
23 1 7.54707 3.39809 0.975989
29 1 9.49938 2.67679 -1.03743
14 1 -0.255548 5.93491 0.933645
15 1 2.34487 7.18229 1.01691
16 1 1.66405 5.20822 -1.02651
18 1 4.29161 6.5302 -0.971947
12 1 3.6388 4.6043 0.984099
27 1 6.26765 5.97226 1.02886
8 1 10.1321 4.59592 1.01965
13 1 10.8014 6.54346 -0.997487
28 1 8.23568 5.3359 -1.01444
39 1 8.84736 7.27921 1.03633
31 1 0.393204 7.85525 -0.935141
32 1 -0.914622 10.4665 -1.03246
33 1 1.07996 9.82984 1.03584
30 1 -1.56005 8.55378 1.05259
34 1 3.04332 9.19186 -1.00728
35 1 4.93627 8.54136 1.02368
36 1 5.58672 10.4468 -0.958978
37 1 7.53485 9.84018 0.995739
38 1 6.87734 7.90147 -0.987375
40 1 9.485 9.18409 -0.97781
ITEM: TIMESTEP
19000
ITEM: NUMBER OF ATOMS
40
ITEM: BOX BOUNDS pp pp pp
-2.0000000000000000e+00 1.1000000000000000e+01
-2.0000000000000000e+00 1.1000000000000000e+01
-2.0000000000000000e+00 2.0000000000000000e+00
ITEM: ATOMS id type x y z
1 1 -0.30161 -0.551583 1.0483
3 1 2.36369 0.674889 1.00747
4 1 1.63329 -1.24819 -0.968141
5 1 3.59157 -1.88933 0.912857
6 1 4.3381 0.0831878 -1.04299
19 1 6.24101 -0.620057 1.00615
20 1 8.13099 -1.26803 -0.983613
21 1 10.1122 -1.87285 1.01111
22 1 10.7482 0.0323438 -0.979009
25 1 8.82767 0.752127 0.968731
7 1 0.434585 1.43374 -1.01593
2 1 -0.892035 4.03319 -0.962072
9 1 1.05134 3.40023 1.05347
26 1 -1.53575 2.04294 0.994224
10 1 3.05259 2.64136 -1.00564
24 1 6.97641 1.34239 -1.0251
17 1 5.58945 3.91369 -1.02129
11 1 5.02326 2.0507 0.955805
23 1 7.54087 3.37305 1.02197
29 1 9.4931 2.70288 -0.998316
14 1 -0.237259 5.95014 0.968006
15 1 2.28387 7.21822 0.954884
16 1 1.68197 5.30439 -0.993373
18 1 4.19732 6.54719 -0.988997
12 1 3.73141 4.59195 0.89969
27 1 6.22917 5.91425 1.09891
8 1 10.2007 4.64838 1.01816
13 1 10.843 6.56296 -1.0257
28 1 8.23512 5.35271 -0.995212
39 1 8.90702 7.23838 0.992423
31 1 0.390158 7.93664 -0.997386
32 1 -0.907536 10.4945 -1.03355
33 1 0.998172 9.88044 1.03248
30 1 -1.55904 8.5326 0.976942
34 1 2.9756 9.15052 -1.04131
35 1 4.86849 8.46316 1.0478
36 1 5.50328 10.4511 -0.980262
37 1 7.50929 9.87696 1.0417
38 1 6.83703 7.91245 -0.957481
40 1 9.49335 9.11227 -0.99572
ITEM: TIMESTEP
20000