# System definition
read_data graphene_single_layer_x-45_y-45_795_C.data
Reading data file ...
  orthogonal box = (-51 -51 -51) to (96 96 51)
  1 by 1 by 1 MPI processor grid
  reading atoms ...
  795 atoms
  read_data CPU = 0.016 seconds
pair_style lj/cut 6
pair_coeff      1 1 0.066047 3.4

# Virtual force wall to keep the cylinder shape
#region myCylinder cylinder z 0. 0. 20.3 -22.079997 505.920003 units box
#fix wall all wall/region myCylinder lj93 1.0 1.0 2.5

# Minimization
timestep 0.25
thermo 100
thermo_style custom step temp press vol lx density pe etotal
dump 2 all custom 1000 graphene_single_layer_LJ_795C_after_temp_60K.lammpstrj id type x y z
min_style cg
minimize 1.0e-6 1.0e-6 100 1000
WARNING: Using 'neigh_modify every 1 delay 0 check yes' setting during minimization (../min.cpp:187)
  generated 0 of 0 mixed pair_coeff terms from geometric mixing rule
Neighbor list info ...
  update every 1 steps, delay 0 steps, check yes
  max neighbors/atom: 10000, page size: 100000
  master list distance cutoff = 6.4
  ghost atom cutoff = 6.4
  binsize = 3.2, bins = 46 46 32
  1 neighbor lists, perpetual/occasional/extra = 1 0 0
  (1) pair lj/cut, perpetual
      attributes: half, newton on
      pair build: half/bin/atomonly/newton
      stencil: half/bin/3d
      bin: standard
Per MPI rank memory allocation (min/avg/max) = 5.96 | 5.96 | 5.96 Mbytes
Step Temp Press Volume Lx Density PotEng TotEng 
       0            0    1335313.5      2204118          147  0.007193656     10699602     10699602 
     100            0     61841.43      2204118          147  0.007193656    488621.59    488621.59 
Loop time of 0.0627983 on 1 procs for 100 steps with 795 atoms

100.0% CPU use with 1 MPI tasks x no OpenMP threads

Minimization stats:
  Stopping criterion = max iterations
  Energy initial, next-to-last, final = 
      10699602.3573369   495470.853828546   488621.590421788
  Force two-norm initial, final = 694694.42 29375.63
  Force max component initial, final = 79169.705 9280.0147
  Final line search alpha, max atom move = 3.8811533e-05 0.36017159
  Iterations, force evaluations = 100 117

MPI task timing breakdown:
Section |  min time  |  avg time  |  max time  |%varavg| %total
---------------------------------------------------------------
Pair    | 0.041094   | 0.041094   | 0.041094   |   0.0 | 65.44
Neigh   | 0.017759   | 0.017759   | 0.017759   |   0.0 | 28.28
Comm    | 0.0003858  | 0.0003858  | 0.0003858  |   0.0 |  0.61
Output  | 6.8e-05    | 6.8e-05    | 6.8e-05    |   0.0 |  0.11
Modify  | 0          | 0          | 0          |   0.0 |  0.00
Other   |            | 0.003492   |            |       |  5.56

Nlocal:            795 ave         795 max         795 min
Histogram: 1 0 0 0 0 0 0 0 0 0
Nghost:              0 ave           0 max           0 min
Histogram: 1 0 0 0 0 0 0 0 0 0
Neighs:          13073 ave       13073 max       13073 min
Histogram: 1 0 0 0 0 0 0 0 0 0

Total # of neighbors = 13073
Ave neighs/atom = 16.444025
Neighbor list builds = 35
Dangerous builds = 0
#timestep 0.25
fix 1 all nvt temp 60.0 60.0 $(100.0*dt)
fix 1 all nvt temp 60.0 60.0 25
run 400000
  generated 0 of 0 mixed pair_coeff terms from geometric mixing rule
Per MPI rank memory allocation (min/avg/max) = 4.835 | 4.835 | 4.835 Mbytes
Step Temp Press Volume Lx Density PotEng TotEng 
     100            0     61841.43      2204118          147  0.007193656    488621.59    488621.59 
     200    5922.7716    31712.214      2204118          147  0.007193656    246403.52    260421.31 
     300    2943.1694    20930.782      2204118          147  0.007193656    162040.41    169006.19 
     400    1902.0253    15361.697      2204118          147  0.007193656    118384.22    122885.86 
     500    1316.7855    11999.456      2204118          147  0.007193656    92076.032    95192.551 
     600    989.64972    9786.5556      2204118          147  0.007193656    74780.959    77123.225 
     700     781.2672    8204.6506      2204118          147  0.007193656     62435.31    64284.385 
     800    635.96565    7020.2955      2204118          147  0.007193656    53207.588    54712.768 
     900    530.49438    6103.3967      2204118          147  0.007193656    46075.248    47330.803 
    1000    451.00217    5374.1044      2204118          147  0.007193656    40411.152    41478.567 
    1100    389.05309    4782.1901      2204118          147  0.007193656    35821.213    36742.009 
    1200    340.05397    4293.5022      2204118          147  0.007193656    32037.785    32842.612 
    1300    300.71639    3883.7641      2204118          147  0.007193656     28870.53    29582.254 
    1400    268.58395     3535.583      2204118          147  0.007193656    26183.159    26818.833 
    1500     241.9273    3236.3868      2204118          147  0.007193656    23877.415        24450 
    1600    219.56481    2976.7584      2204118          147  0.007193656    21879.627    22399.285 
    1700    200.60573    2749.5263      2204118          147  0.007193656    20133.825    20608.612 
    1800    184.38403    2549.1308      2204118          147  0.007193656    18596.546    19032.939 
    1900    170.39975    2371.2017      2204118          147  0.007193656    17233.699    17636.995 
    2000    158.26798    2212.2389      2204118          147  0.007193656    16017.924    16392.507 
    2100    147.68496     2069.421      2204118          147  0.007193656    14927.257    15276.792 
    2200    138.39328    1940.4545      2204118          147  0.007193656    13943.882    14271.426 
    2300    130.14814    1823.4785      2204118          147  0.007193656     13053.22     13361.25 
    2400    122.77518    1717.0118      2204118          147  0.007193656    12243.807    12534.387 
    2500    116.17836    1619.8018      2204118          147  0.007193656     11505.94    11780.907 
    2600    110.27919    1530.7512      2204118          147  0.007193656    10831.043    11092.048 
    2700    104.99563    1448.9184      2204118          147  0.007193656    10211.832    10460.331 
    2800       100.27     1373.481      2204118          147  0.007193656    9641.8873    9879.2026 
    2900    96.057621    1303.7109      2204118          147  0.007193656    9115.5754     9342.921 
    3000    92.282241    1238.9824      2204118          147  0.007193656    8628.0573    8846.4675 
    3100    88.879275    1178.7732      2204118          147  0.007193656    8175.2955    8385.6517 
    3200    85.809371    1122.6304      2204118          147  0.007193656    7753.7483    7956.8388 
    3300    83.039537    1070.1648      2204118          147  0.007193656    7360.4317    7556.9666 
    3400    80.539372    1021.0306      2204118          147  0.007193656    6992.6682    7183.2858 
    3500    78.282374    974.92417      2204118          147  0.007193656    6648.1031    6833.3789 
    3600    76.246246    931.58214      2204118          147  0.007193656    6324.7463    6505.2031 
    3700    74.410548     890.7642      2204118          147  0.007193656    6020.7238    6196.8359 
    3800    72.757659    852.25396      2204118          147  0.007193656    5734.3289    5906.5291 
    3900    71.272058    815.86756      2204118          147  0.007193656    5464.1967    5632.8808 
    4000    69.938033    781.43053      2204118          147  0.007193656    5208.9399    5374.4666 
    4100    68.741693    748.80034      2204118          147  0.007193656    4967.5395    5130.2348 
    4200    67.670442    717.83604      2204118          147  0.007193656    4738.8608    4899.0207 
    4300      66.7119     688.4155      2204118          147  0.007193656    4521.9563    4679.8476 
    4400    65.856659    660.43378      2204118          147  0.007193656    4316.0542    4471.9213 
    4500    65.094358     633.7855      2204118          147  0.007193656    4120.2816    4274.3445 
    4600    64.416414    608.39059      2204118          147  0.007193656    3934.1004    4086.5588 
    4700      63.8152    584.16382      2204118          147  0.007193656    3756.8139    3907.8494 
    4800     63.28247    561.02688      2204118          147  0.007193656    3587.7761    3737.5507 
    4900    62.811401    538.92352      2204118          147  0.007193656    3426.6465    3575.3062 
    5000     62.39613    517.78476      2204118          147  0.007193656    3272.8221    3420.4989 
    5100    62.030997    497.55993      2204118          147  0.007193656     3125.959    3272.7717 
    5200    61.710103    478.19486      2204118          147  0.007193656    2985.6143    3131.6675 
    5300    61.429309    459.64606      2204118          147  0.007193656    2851.4844     2996.873 
    5400     61.18399    441.87103      2204118          147  0.007193656    2723.2518    2868.0598 
    5500    60.969312    424.82821      2204118          147  0.007193656     2600.584    2744.8839 
    5600    60.781269    408.47171      2204118          147  0.007193656    2483.0478    2626.9026 
    5700    60.617767    392.77913      2204118          147  0.007193656    2370.5759    2514.0438 
    5800    60.476641    377.71035      2204118          147  0.007193656    2262.7875    2405.9214 
    5900    60.354871    363.24157      2204118          147  0.007193656    2159.5541    2302.3997 
    6000    60.249781    349.34483      2204118          147  0.007193656    2060.6608    2203.2578 
    6100    60.159275     335.9859      2204118          147  0.007193656    1965.7703    2108.1531 
    6200    60.079889    323.15281      2204118          147  0.007193656    1874.8944    2017.0892 
    6300    60.007078    310.81143      2204118          147  0.007193656    1787.6477    1929.6703 
    6400    59.936643     298.9622      2204118          147  0.007193656    1704.1783    1846.0341 
    6500    59.866989     287.5878      2204118          147  0.007193656    1624.2965    1765.9875 
    6600    59.802282    276.67581      2204118          147  0.007193656     1547.875    1689.4128 
    6700    59.753245    266.21981      2204118          147  0.007193656    1474.9055    1616.3273 
    6800    59.737306    256.20031      2204118          147  0.007193656    1405.2488    1546.6328 
    6900     59.77279    246.56123      2204118          147  0.007193656    1338.3252    1479.7933 
    7000    59.809169    237.28808      2204118          147  0.007193656    1274.2718     1415.826 
    7100    59.772776    228.35048      2204118          147  0.007193656    1212.7365    1354.2045 
    7200    59.698851    219.75279      2204118          147  0.007193656    1153.7622    1295.0552 
    7300    59.679169    211.48832      2204118          147  0.007193656     1097.241    1238.4875 
    7400    59.719193    203.54722      2204118          147  0.007193656    1043.1616    1184.5028 
    7500    59.744109    195.89413      2204118          147  0.007193656    991.14099    1132.5411 
    7600    59.719352    188.52938      2204118          147  0.007193656    941.30667    1082.6482 
    7700    59.690653    181.43674      2204118          147  0.007193656    893.43236     1034.706 
    7800    59.700023     174.6104      2204118          147  0.007193656    847.48559     988.7814 
    7900    59.726297    168.04073      2204118          147  0.007193656    803.42474    944.78274 
    8000    59.730407     161.7189      2204118          147  0.007193656    761.21873    902.58646 
    8100    59.716386    155.63854      2204118          147  0.007193656     720.8341    862.16864 
    8200    59.717172    149.78555      2204118          147  0.007193656    682.09434    823.43074 
    8300    59.736826    144.14876      2204118          147  0.007193656    644.90127    786.28419 
    8400    59.750181    138.71584      2204118          147  0.007193656    609.14788     750.5624 
    8500    59.746247    133.48659      2204118          147  0.007193656    574.90469    716.30991 
    8600    59.742382    128.44407      2204118          147  0.007193656    541.94022    683.33629 
    8700    59.754339     123.5965      2204118          147  0.007193656    510.44996    651.87433 
    8800    59.771967    118.92395      2204118          147  0.007193656     480.1809    621.64699 
    8900    59.776841    114.42454      2204118          147  0.007193656    451.17695    592.65458 
    9000    59.773422     110.0893      2204118          147  0.007193656    423.34022    564.80976 
    9100    59.778351    105.91223      2204118          147  0.007193656    396.61555    538.09675 
    9200    59.793994    101.89502      2204118          147  0.007193656    371.08875    512.60697 
    9300    59.804865    98.021862      2204118          147  0.007193656    346.56347    488.10742 
    9400    59.804458     94.29127      2204118          147  0.007193656    323.06769    464.61068 
    9500    59.805081    90.698608      2204118          147  0.007193656    300.56172    442.10618 
    9600    59.816168    87.232777      2204118          147  0.007193656    278.90321    420.47392 
    9700    59.828987    83.896315      2204118          147  0.007193656    258.18962    399.79067 
    9800    59.832904    80.681956      2204118          147  0.007193656    238.35163    379.96195 
    9900    59.832367    77.584439      2204118          147  0.007193656    219.33836     360.9474 
   10000    59.838631    74.604335      2204118          147  0.007193656    201.19122    342.81509 
   10100    59.850653    71.734073      2204118          147  0.007193656    183.82609    325.47841 
   10200    59.857714    68.964968      2204118          147  0.007193656    167.14455    308.81358 
   10300    59.857296     66.29831      2204118          147  0.007193656    151.20382    292.87186 
   10400    59.859271    63.729384      2204118          147  0.007193656    135.95057    277.62329 
   10500    59.868603    61.256783      2204118          147  0.007193656    121.39113    263.08593 
   10600    59.877841    58.875607      2204118          147  0.007193656    107.48206    249.19873 
   10700     59.87987    56.584333      2204118          147  0.007193656    94.232798    235.95427 
   10800      59.8792    54.373041      2204118          147  0.007193656    81.502278    223.22216 
   10900    59.884315    52.246218      2204118          147  0.007193656    69.386213     211.1182 
   11000    59.893692    50.196735      2204118          147  0.007193656    57.794364    199.54855 
   11100    59.897878    48.224099      2204118          147  0.007193656    46.750266    188.51436 
   11200    59.896433    46.325374      2204118          147  0.007193656    36.227077    177.98775 
   11300     59.89798    44.498072      2204118          147  0.007193656    26.198298    167.96263 
   11400    59.905935    42.739814      2204118          147  0.007193656    16.645323    158.42848 
   11500    59.913357     41.04555      2204118          147  0.007193656    7.5151007    149.31583 
   11600    59.915664    39.420286      2204118          147  0.007193656   -1.0793829     140.7268 
   11700    59.916496    37.855249      2204118          147  0.007193656   -9.2604835    132.54767 
   11800    59.921362    36.352563      2204118          147  0.007193656   -16.972086    124.84759 
   11900    59.927667    34.900217      2204118          147  0.007193656    -24.39148    117.44312 
   12000    59.929599    33.500238      2204118          147  0.007193656   -31.464625    110.37454 
   12100    59.928731    32.160177      2204118          147  0.007193656   -38.052465    103.78465 
   12200    59.931682    30.871335      2204118          147  0.007193656   -44.288152    97.555945 
   12300    59.938122    29.622143      2204118          147  0.007193656   -50.346139    91.513202 
   12400    59.941311    28.423361      2204118          147  0.007193656   -56.026554    85.840335 
   12500    59.939909    27.263316      2204118          147  0.007193656   -61.509529    80.354041 
   12600    59.940381    26.157606      2204118          147  0.007193656   -66.527437    75.337251 
   12700    59.946472     25.09508      2204118          147  0.007193656   -71.254235    70.624868 
   12800    59.951694    24.067271      2204118          147  0.007193656   -75.810846    66.080615 
   12900    59.950841    23.082213      2204118          147  0.007193656   -80.046275    61.843167 
   13000     59.94852    22.123674      2204118          147  0.007193656   -84.222784    57.661167 
   13100    59.951281    21.202043      2204118          147  0.007193656   -88.161912    53.728572 
   13200    59.957679    20.319082      2204118          147  0.007193656   -91.822243    50.083383 
   13300    59.959799    19.461086      2204118          147  0.007193656   -95.414824    46.495821 
   13400    59.956581    18.639675      2204118          147  0.007193656   -98.734855    43.168174 
   13500    59.956381    17.839357      2204118          147  0.007193656   -102.03591    39.866641 
   13600    59.962075    17.077927      2204118          147  0.007193656   -105.01242    36.903608 
   13700    59.967188    16.343643      2204118          147  0.007193656   -107.84255    34.085583 
   13800    59.965878    15.633029      2204118          147  0.007193656   -110.56766    31.357375 
   13900    59.963459    14.953778      2204118          147  0.007193656   -113.05242    28.866889 
   14000    59.966891    14.299466      2204118          147  0.007193656   -115.39811    26.529322 
   14100    59.972241    13.664935      2204118          147  0.007193656   -117.67771    24.262387 
   14200    59.972508    13.051103      2204118          147  0.007193656   -119.86307    22.077658 
   14300    59.968511    12.456434      2204118          147  0.007193656   -121.97435    19.956914 
   14400    59.968641    11.887769      2204118          147  0.007193656   -123.89775    18.033823 
   14500    59.974617    11.336702      2204118          147  0.007193656   -125.76576    16.179955 
   14600    59.978612    10.806425      2204118          147  0.007193656   -127.50865    14.446522 
   14700    59.976533    10.290589      2204118          147  0.007193656   -129.21826    12.731991 
   14800    59.974372    9.7971626      2204118          147  0.007193656   -130.75766    11.187477 
   14900    59.977803    9.3215937      2204118          147  0.007193656   -132.20031    9.7529404 
   15000    59.982237    8.8652387      2204118          147  0.007193656   -133.51582    8.4479265 
   15100    59.980903    8.4224429      2204118          147  0.007193656   -134.79064     7.169952 
   15200    59.976794    7.9987027      2204118          147  0.007193656   -135.93364    6.0172277 
   15300    59.977948    7.5894275      2204118          147  0.007193656   -137.02406    4.9295379 
   15400    59.983699    7.1975943      2204118          147  0.007193656   -138.00638     3.960826 
   15500    59.986043    6.8211303      2204118          147  0.007193656   -138.90227    3.0704901 
   15600     59.98271    6.4582344      2204118          147  0.007193656   -139.73326    2.2316102 
   15700    59.980926    6.1106311      2204118          147  0.007193656   -140.47004    1.4906104 
   15800    59.985086     5.777429      2204118          147  0.007193656   -141.12496   0.84553715 
   15900     59.98936    5.4563184      2204118          147  0.007193656   -141.72674   0.25386489 
   16000    59.987454    5.1471192      2204118          147  0.007193656   -142.26948  -0.29337796 
   16100    59.983415    4.8502067      2204118          147  0.007193656   -142.74697   -0.7804272 
   16200    59.984951    4.5666203      2204118          147  0.007193656   -143.14479   -1.1746205 
   16300    59.990492    4.2943609      2204118          147  0.007193656   -143.49116   -1.5078755 
   16400    59.991562    4.0326291      2204118          147  0.007193656    -143.7885   -1.8026796 
   16500    59.987156    3.7804893      2204118          147  0.007193656   -144.04752   -2.0721262 
   16600    59.985666    3.5399717      2204118          147  0.007193656   -144.23705   -2.2651873 
   16700    59.990545    3.3093124      2204118          147  0.007193656   -144.38513    -2.401717 
   16800    59.994219    3.0883253      2204118          147  0.007193656   -144.48513   -2.4930213 
   16900    59.991249    2.8764514      2204118          147  0.007193656   -144.53918    -2.554105 
   17000    59.987108    2.6737332      2204118          147  0.007193656   -144.54853   -2.5732481 
   17100    59.989325    2.4802657      2204118          147  0.007193656   -144.51472   -2.5341889 
   17200    59.994706    2.2950725      2204118          147  0.007193656   -144.44769   -2.4544282 
   17300    59.995063    2.1188667      2204118          147  0.007193656   -144.32458   -2.3304794 
   17400    59.990956    1.9511907      2204118          147  0.007193656   -144.14865   -2.1642613 
   17500    59.990441    1.7899191      2204118          147  0.007193656   -143.95683   -1.9736631 
   17600    59.995103    1.6347374      2204118          147  0.007193656   -143.75113   -1.7569288 
   17700    59.997699    1.4859903      2204118          147  0.007193656   -143.51641   -1.5160648 
   17800    59.994523    1.3447726      2204118          147  0.007193656   -143.22919   -1.2363653 
   17900    59.991367    1.2086812      2204118          147  0.007193656   -142.93298   -0.9476248 
   18000    59.993582    1.0784619      2204118          147  0.007193656   -142.61936  -0.62875894 
   18100    59.997461   0.95549653      2204118          147  0.007193656   -142.26306  -0.26327684 
   18200    59.996267   0.83856641      2204118          147  0.007193656    -141.8804   0.11656123 
   18300    59.991869   0.72684264      2204118          147  0.007193656   -141.48791   0.49863523 
   18400     59.99175   0.62320325      2204118          147  0.007193656   -141.04349    0.9427798 
   18500    59.996613   0.52491082      2204118          147  0.007193656   -140.59075     1.407028 
   18600    59.999101    0.4316907      2204118          147  0.007193656   -140.12362    1.8800383 
   18700    59.996371   0.34431914      2204118          147  0.007193656   -139.62062    2.3765836 
   18800    59.994359    0.2609058      2204118          147  0.007193656   -139.11079     2.881645 
   18900    59.998015   0.18252948      2204118          147  0.007193656   -138.57317    3.4279186 
   19000    60.002154   0.10591047      2204118          147  0.007193656   -138.05273    3.9581629 
   19100    60.000263  0.032032455      2204118          147  0.007193656   -137.52546     4.480958 
   19200    59.995355 -0.038345584      2204118          147  0.007193656   -136.98244    5.0123604 
   19300    59.994994  -0.10551439      2204118          147  0.007193656   -136.43856    5.5553872 
   19400      59.9988  -0.16853497      2204118          147  0.007193656   -135.88251    6.1204378 
   19500    59.999703  -0.22590461      2204118          147  0.007193656    -135.2871    6.7179871 
   19600    59.996095  -0.28016759      2204118          147  0.007193656   -134.69444      7.30211 
   19700    59.994552  -0.33021148      2204118          147  0.007193656   -134.08895    7.9039449 
   19800    59.998922  -0.37691726      2204118          147  0.007193656   -133.48257    8.5206741 
   19900    60.003466  -0.42082114      2204118          147  0.007193656   -132.87137    9.1426257 
   20000    60.002392  -0.46251396      2204118          147  0.007193656   -132.25221    9.7592466 
   20100    59.999105  -0.50245703      2204118          147  0.007193656   -131.62962    10.374054 
   20200    59.999605  -0.54205338      2204118          147  0.007193656   -131.03023    10.974626 
   20300    60.002542  -0.57955344      2204118          147  0.007193656    -130.4272    11.584611 
   20400    60.001806  -0.61513361      2204118          147  0.007193656   -129.82579    12.184273 
   20500    59.996961  -0.64749367      2204118          147  0.007193656   -129.21284    12.785759 
   20600    59.994826  -0.67661852      2204118          147  0.007193656   -128.60145    13.392094 
   20700     59.99809  -0.70141846      2204118          147  0.007193656   -127.98054    14.020728 
   20800    60.001308   -0.7210872      2204118          147  0.007193656   -127.33338    14.675503 
   20900     59.99957  -0.73816254      2204118          147  0.007193656   -126.69529    15.309484 
   21000    59.996939  -0.75151207      2204118          147  0.007193656    -126.0441    15.954449 
   21100    59.999499  -0.76267772      2204118          147  0.007193656   -125.40126     16.60334 
   21200    60.004712  -0.77215922      2204118          147  0.007193656   -124.76328    17.253659 
   21300    60.005385  -0.78106089      2204118          147  0.007193656   -124.13468    17.883852 
   21400    60.001258  -0.78930301      2204118          147  0.007193656    -123.5095    18.499272 
   21500    59.999267  -0.79757707      2204118          147  0.007193656   -122.90458    19.099474 
   21600     60.00198  -0.80543117      2204118          147  0.007193656   -122.31771    19.692766 
   21700    60.003756  -0.81213972      2204118          147  0.007193656   -121.73742    20.277258 
   21800    60.000721  -0.81740489      2204118          147  0.007193656    -121.1613    20.846198 
   21900    59.997157  -0.82058344      2204118          147  0.007193656   -120.58698    21.412079 
   22000    59.998798   -0.8201295      2204118          147  0.007193656    -119.9967    22.006248 
   22100    60.002739  -0.81809584      2204118          147  0.007193656   -119.42387    22.588406 
   22200    60.002151  -0.81376903      2204118          147  0.007193656   -118.85114    23.159738 
   22300     59.99845  -0.80620075      2204118          147  0.007193656   -118.26283     23.73929 
   22400    59.998586  -0.79630996      2204118          147  0.007193656   -117.67792     24.32452 
   22500    60.002499  -0.78428696      2204118          147  0.007193656   -117.09669    24.915017 
   22600    60.004257  -0.77175696      2204118          147  0.007193656   -116.53801    25.477852 
   22700    60.001285  -0.75708878      2204118          147  0.007193656   -115.96915    26.039684 
   22800    59.999385  -0.74084228      2204118          147  0.007193656   -115.40082    26.603514 
   22900    60.001931  -0.72457899      2204118          147  0.007193656   -114.85881    27.151554 
   23000    60.004905   -0.7071636      2204118          147  0.007193656   -114.31855    27.698846 
   23100    60.003593  -0.68999313      2204118          147  0.007193656   -113.79784    28.216454 
   23200    60.000013  -0.67247941      2204118          147  0.007193656   -113.28767    28.718153 
   23300    60.000081  -0.65481013      2204118          147  0.007193656   -112.79613    29.209854 
   23400    60.003464  -0.63535818      2204118          147  0.007193656   -112.29717    29.716818 
   23500    60.004022  -0.61574673      2204118          147  0.007193656   -111.81501    30.200298 
   23600    60.000052  -0.59528148      2204118          147  0.007193656   -111.33907    30.666845 
   23700    59.997774  -0.57449823      2204118          147  0.007193656   -110.88491    31.115616 
   23800    60.000993  -0.55066038      2204118          147  0.007193656   -110.41007    31.598067 
   23900    60.005035  -0.52525068      2204118          147  0.007193656   -109.93374    32.083969 
   24000    60.003313  -0.50034223      2204118          147  0.007193656   -109.48186    32.531769 
   24100    59.999025  -0.47554903      2204118          147  0.007193656   -109.04682     32.95666 
   24200    60.000013  -0.44876939      2204118          147  0.007193656   -108.59649    33.409335 
   24300    60.005225  -0.42232637      2204118          147  0.007193656   -108.16638    33.851774 
   24400    60.005887  -0.39668571      2204118          147  0.007193656   -107.75657    34.263159 
   24500    60.000601  -0.37128383      2204118          147  0.007193656   -107.35788    34.649335 
   24600    59.997976  -0.34396264      2204118          147  0.007193656   -106.94402    35.056976 
   24700    60.002213   -0.3163429      2204118          147  0.007193656    -106.5482    35.462824 
   24800    60.005806  -0.28808218      2204118          147  0.007193656   -106.16091    35.858619 
   24900    60.001952  -0.25980571      2204118          147  0.007193656   -105.78851    36.221905 
   25000    59.996852  -0.23213277      2204118          147  0.007193656   -105.44715    36.551191 
   25100    59.998928  -0.20204462      2204118          147  0.007193656   -105.09399    36.909261 
   25200     60.00468  -0.17019244      2204118          147  0.007193656   -104.73747    37.279395 
   25300    60.004211  -0.13750589      2204118          147  0.007193656   -104.38545    37.630307 
   25400    59.998071  -0.10395109      2204118          147  0.007193656    -104.0374    37.963826 
   25500    59.996558 -0.068145411      2204118          147  0.007193656   -103.67608    38.321564 
   25600    60.002746 -0.033430417      2204118          147  0.007193656    -103.3537    38.658586 
   25700    60.007259  0.002046487      2204118          147  0.007193656   -103.02256    39.000413 
   25800    60.004459  0.035027892      2204118          147  0.007193656   -102.72209    39.294256 
   25900    60.000397  0.066119538      2204118          147  0.007193656    -102.4392    39.567526 
   26000    60.002251  0.096455752      2204118          147  0.007193656   -102.15779     39.85333 
   26100    60.006399   0.12506961      2204118          147  0.007193656   -101.89333    40.127611 
   26200    60.004319    0.1511418      2204118          147  0.007193656   -101.65853    40.357482 
   26300    59.998264   0.17794072      2204118          147  0.007193656   -101.40763    40.594048 
   26400    59.997501   0.20385246      2204118          147  0.007193656    -101.1802    40.819679 
   26500    60.002956   0.23065685      2204118          147  0.007193656   -100.94978    41.063004 
   26600     60.00583   0.25788816      2204118          147  0.007193656   -100.71756    41.302029 
   26700    60.001654   0.28478531      2204118          147  0.007193656   -100.49311    41.516596 
   26800    59.996971   0.31033748      2204118          147  0.007193656   -100.30037     41.69825 
   26900    59.999269   0.33769871      2204118          147  0.007193656   -100.09592    41.908145 
   27000    60.004288   0.36438895      2204118          147  0.007193656   -99.920902    42.095037 
   27100    60.003395   0.39272198      2204118          147  0.007193656   -99.732572    42.281253 
   27200    59.998689   0.42381725      2204118          147  0.007193656   -99.515799    42.486888 
   27300    59.998213   0.45505443      2204118          147  0.007193656   -99.321522    42.680039 
   27400    60.003005   0.48543881      2204118          147  0.007193656   -99.167347    42.845556 
   27500    60.005174   0.51758848      2204118          147  0.007193656   -99.003035    43.015001 
   27600    60.001397   0.54921716      2204118          147  0.007193656   -98.863426    43.145672 
   27700    59.998263   0.58412727      2204118          147  0.007193656   -98.689955    43.311724 
   27800    60.001391   0.61997114      2204118          147  0.007193656   -98.525776    43.483308 
   27900    60.005777   0.65593448      2204118          147  0.007193656   -98.380228    43.639235 
   28000    60.003868   0.69169057      2204118          147  0.007193656   -98.252897    43.762049 
   28100    59.998407   0.72899188      2204118          147  0.007193656   -98.116878    43.885144 
   28200    59.998629   0.76518131      2204118          147  0.007193656   -98.023127     43.97942 
   28300    60.004362   0.80520523      2204118          147  0.007193656   -97.887621    44.128493 
   28400    60.006033   0.84594181      2204118          147  0.007193656   -97.752897    44.267172 
   28500    60.000117   0.88220026      2204118          147  0.007193656   -97.701575    44.304492 
   28600    59.996068   0.92215379      2204118          147  0.007193656   -97.605369    44.391115 
   28700    60.000375   0.96313398      2204118          147  0.007193656   -97.513936    44.492742 
   28800    60.006058    1.0051513      2204118          147  0.007193656   -97.419554    44.600576 
   28900    60.004242    1.0468573      2204118          147  0.007193656   -97.332632    44.683199 
   29000    59.999112    1.0858738      2204118          147  0.007193656   -97.290336    44.713353 
   29100    60.000434    1.1269219      2204118          147  0.007193656   -97.219747    44.787072 
   29200    60.004736    1.1652297      2204118          147  0.007193656    -97.20179    44.815209 
   29300    60.002075    1.2043341      2204118          147  0.007193656   -97.178214    44.832488 
   29400    59.994693    1.2442561      2204118          147  0.007193656   -97.159628    44.833602 
   29500    59.993599    1.2861755      2204118          147  0.007193656    -97.14201    44.848631 
   29600    59.999644    1.3330792      2204118          147  0.007193656   -97.080221    44.924727 
   29700    60.002062      1.38256      2204118          147  0.007193656   -97.006579    45.004092 
   29800    59.996837     1.436243      2204118          147  0.007193656   -96.887439    45.110864 
   29900    59.993314      1.48875      2204118          147  0.007193656   -96.808679    45.181287 
   30000    60.000971    1.5411795      2204118          147  0.007193656   -96.738024    45.270064 
   30100    60.012323    1.5914568      2204118          147  0.007193656    -96.67379    45.361167 
   30200    60.013739     1.636216      2204118          147  0.007193656   -96.631587    45.406721 
   30300    60.006235    1.6734069      2204118          147  0.007193656   -96.629549    45.390999 
   30400    60.001787     1.701759      2204118          147  0.007193656   -96.699476    45.310544 
   30500    60.004696    1.7279741      2204118          147  0.007193656   -96.747784    45.269122 
   30600    60.006789    1.7524231      2204118          147  0.007193656   -96.782401    45.239457 
   30700    60.000601    1.7726653      2204118          147  0.007193656   -96.859762     45.14745 
   30800    59.992716    1.7919359      2204118          147  0.007193656   -96.952057    45.036494 
   30900    59.993615    1.8127499      2204118          147  0.007193656   -97.042916    44.947764 
   31000     60.00087    1.8403293      2204118          147  0.007193656   -97.053705    44.954144 
   31100    60.002756    1.8669665      2204118          147  0.007193656   -97.104346    44.907968 
   31200    59.998268    1.8949218      2204118          147  0.007193656    -97.15038    44.851311 
   31300    59.996839     1.923362      2204118          147  0.007193656   -97.205227    44.793083 
   31400    60.002379    1.9549093      2204118          147  0.007193656   -97.222463    44.788959 
   31500    60.005853    1.9868018      2204118          147  0.007193656   -97.236674    44.782968 
   31600    60.001635    2.0154379      2204118          147  0.007193656   -97.299277    44.710384 
   31700    59.997567    2.0438337      2204118          147  0.007193656   -97.361814    44.638218 
   31800    60.000524    2.0705069      2204118          147  0.007193656   -97.449397    44.557634 
   31900    60.006499    2.0958777      2204118          147  0.007193656   -97.548153     44.47302 
   32000    60.004701    2.1191141      2204118          147  0.007193656   -97.664501    44.352417 
   32100    59.996286    2.1453343      2204118          147  0.007193656   -97.725548    44.271452 
   32200    59.990574    2.1741069      2204118          147  0.007193656   -97.768068    44.215415 
   32300    59.991611    2.2058666      2204118          147  0.007193656   -97.810203    44.175734 
   32400    59.995395    2.2447297      2204118          147  0.007193656   -97.786371     44.20852 
   32500     59.99896    2.2849425      2204118          147  0.007193656   -97.774099     44.22923 
   32600    60.001735     2.325303      2204118          147  0.007193656   -97.763241    44.246655 
   32700    60.004609    2.3631562      2204118          147  0.007193656   -97.769558    44.247142 
   32800    60.005363    2.3973792      2204118          147  0.007193656   -97.791885    44.226598 
   32900    60.002769    2.4256398      2204118          147  0.007193656   -97.864074    44.148271 
   33000    59.999881    2.4533032      2204118          147  0.007193656   -97.906274    44.099235 
   33100    59.999551    2.4785069      2204118          147  0.007193656   -97.963708    44.041019 
   33200    59.999674    2.5006996      2204118          147  0.007193656   -98.054168    43.950852 
   33300    59.998813    2.5271184      2204118          147  0.007193656   -98.064234    43.938748 
   33400    59.997055    2.5520004      2204118          147  0.007193656   -98.100236    43.898585 
   33500    59.993646    2.5777846      2204118          147  0.007193656   -98.134612    43.856139 
   33600    59.992156    2.6070697      2204118          147  0.007193656   -98.135857    43.851369 
   33700    59.995637    2.6374943      2204118          147  0.007193656   -98.139087    43.856377 
   33800    60.002886    2.6704206      2204118          147  0.007193656   -98.098452    43.914169 
   33900    60.006753    2.6984136      2204118          147  0.007193656   -98.104296    43.917477 
   34000     60.00439    2.7199415      2204118          147  0.007193656   -98.158481    43.857701 
   34100    60.001268    2.7379273      2204118          147  0.007193656   -98.205929    43.802864 
   34200    60.002514    2.7529995      2204118          147  0.007193656     -98.2378     43.77394 
   34300    60.005104    2.7617916      2204118          147  0.007193656   -98.310831    43.707039 
   34400    60.003383    2.7657442      2204118          147  0.007193656   -98.404557     43.60924 
   34500    59.998225    2.7660676      2204118          147  0.007193656   -98.513077    43.488512 
   34600    59.996458    2.7664491      2204118          147  0.007193656   -98.597569    43.399837 
   34700    59.999175     2.765191      2204118          147  0.007193656   -98.703354    43.300484 
   34800    60.000023    2.7666179      2204118          147  0.007193656   -98.766031    43.239815 
   34900    59.996665    2.7668767      2204118          147  0.007193656   -98.859418    43.138479 
   35000    59.993344    2.7692222      2204118          147  0.007193656   -98.945584    43.044454 
   35100    59.993259    2.7786859      2204118          147  0.007193656   -98.958786     43.03105 
   35200    59.992631    2.7947834      2204118          147  0.007193656   -98.921698    43.066651 
   35300     59.98704    2.8169161      2204118          147  0.007193656   -98.861218    43.113901 
   35400    59.984791    2.8473195      2204118          147  0.007193656   -98.748066    43.221728 
   35500    60.014384    2.8769894      2204118          147  0.007193656   -98.659766    43.380069 
   35600    60.059307    2.8917989      2204118          147  0.007193656   -98.701882    43.444274 
   35700    60.009026    2.9023609      2204118          147  0.007193656    -98.75014    43.277013 
   35800    59.885377    2.9350219      2204118          147  0.007193656   -98.625583    43.108922 
   35900    59.870569    3.0056328      2204118          147  0.007193656   -98.297432    43.402027 
   36000    60.008858    3.1093961      2204118          147  0.007193656   -97.766595     44.26016 
   36100    60.167914    3.1961612      2204118          147  0.007193656   -97.332123     45.07108 
   36200    60.207038    3.2054117      2204118          147  0.007193656   -97.378915    45.116887 
   36300    60.025915     3.150977      2204118          147  0.007193656   -97.736194    44.330931 
   36400     59.75449    3.1061022      2204118          147  0.007193656   -97.997417     43.42731 
   36500     59.80128     3.115204      2204118          147  0.007193656   -97.970018     43.56545 
   36600    60.160909     3.150871      2204118          147  0.007193656   -97.839282    44.547343 
   36700    60.261437    3.1649444      2204118          147  0.007193656   -97.791781     44.83277 
   36800    59.969504    3.1409602      2204118          147  0.007193656   -97.834258    44.099356 
   36900      59.7718    3.0984526      2204118          147  0.007193656   -98.072563    43.393131 
   37000    59.926706    3.0851376      2204118          147  0.007193656   -98.219858    43.612463 
   37100    60.136803    3.1055495      2204118          147  0.007193656   -98.121847    44.207724 
   37200    60.062507    3.1320732      2204118          147  0.007193656   -97.916349    44.237381 
   37300    59.848056    3.1668035      2204118          147  0.007193656   -97.597012    44.049164 
   37400    59.888403    3.2118281      2204118          147  0.007193656   -97.296224    44.445443 
   37500    60.217218    3.2308489      2204118          147  0.007193656   -97.251851    45.268043 
   37600    60.279104    3.1960587      2204118          147  0.007193656   -97.476412    45.189951 
   37700    59.829964    3.1527531      2204118          147  0.007193656   -97.570073    44.033283 
   37800    59.543627    3.1642278      2204118          147  0.007193656   -97.370397    43.555267 
   37900    59.924121    3.2509223      2204118          147  0.007193656   -96.846194    44.980008 
   38000    60.552289    3.3022509      2204118          147  0.007193656   -96.679433    46.633494 
   38100    60.346613    3.2728808      2204118          147  0.007193656   -96.785611    46.040531 
   38200    59.497593    3.2391292      2204118          147  0.007193656   -96.656379    44.160335 
   38300    59.451694    3.2578133      2204118          147  0.007193656    -96.48204    44.226041 
   38400    60.292284     3.334218      2204118          147  0.007193656   -96.218813    46.478744 
   38500    60.599526    3.4036464      2204118          147  0.007193656   -95.784148    47.640578 
   38600    59.963109    3.3962052      2204118          147  0.007193656   -95.543026    46.375453 
   38700    59.597608    3.3186267      2204118          147  0.007193656   -95.883365     45.17006 
   38800    59.925204    3.2681755      2204118          147  0.007193656   -96.264867    45.563899 
   38900    60.226466    3.2731487      2204118          147  0.007193656   -96.286393     46.25539 
   39000    60.039936    3.3000626      2204118          147  0.007193656   -95.951883    46.148426 
   39100    59.811669    3.3099285      2204118          147  0.007193656    -95.76814    45.791915 
   39200    59.979222    3.3113062      2204118          147  0.007193656   -95.739645    46.216968 
   39300    60.212455    3.3009659      2204118          147  0.007193656   -95.844439    46.664182 
   39400    60.070586    3.2816036      2204118          147  0.007193656   -95.882425    46.290428 
   39500    59.689421     3.302839      2204118          147  0.007193656   -95.546408    45.724316 
   39600    59.690518    3.4015134      2204118          147  0.007193656   -94.775594    46.497726 
   39700    60.299715    3.4927377      2204118          147  0.007193656   -94.282968    48.432176 
   39800    60.692303    3.4540555      2204118          147  0.007193656   -94.660511    48.983798 
   39900    60.031879    3.3172295      2204118          147  0.007193656    -95.34777    46.733472 
   40000    59.186426    3.2263722      2204118          147  0.007193656   -95.683521    44.396732 
   40100    59.551115    3.2638008      2204118          147  0.007193656    -95.53027    45.413116 
   40200    60.659735    3.3505824      2204118          147  0.007193656   -95.326439    48.240787 
   40300    60.675684    3.3816122      2204118          147  0.007193656   -95.169764    48.435211 
   40400    59.505686    3.3776054      2204118          147  0.007193656   -94.880929    45.954937 
   40500     59.11038    3.4380003      2204118          147  0.007193656   -94.469428    45.430844 
   40600    60.133442    3.6014354      2204118          147  0.007193656   -93.853798    48.467819 
   40700    60.875916    3.7821993      2204118          147  0.007193656   -93.014458    51.064419 
   40800    60.134156     3.889954      2204118          147  0.007193656   -92.141883    50.181423 
   40900    59.307019    3.9334447      2204118          147  0.007193656    -91.67902    48.686648 
   41000    59.909514    3.9391904      2204118          147  0.007193656   -91.957409    49.834223 
   41100    60.789435    3.9076003      2204118          147  0.007193656   -92.619253    51.254944 
   41200    60.174314    3.8685465      2204118          147  0.007193656   -92.784071    49.634279 
   41300    59.107424    3.8713409      2204118          147  0.007193656   -92.515404    47.377871 
   41400    59.493492    3.9590647      2204118          147  0.007193656   -92.156676     48.65033 
   41500    60.819191     4.064114      2204118          147  0.007193656   -91.938456    52.006165 
   41600    60.860325     4.063285      2204118          147  0.007193656   -92.023928    52.018049 
   41700    59.455157    3.9877867      2204118          147  0.007193656   -92.167071    48.549206 
   41800    58.902493     3.990479      2204118          147  0.007193656   -92.074846    47.333406 
   41900    60.028392    4.1476684      2204118          147  0.007193656   -91.507372    50.565615 
   42000    60.978135    4.3585316      2204118          147  0.007193656   -90.596417    53.724387 
   42100    60.292701    4.4877555      2204118          147  0.007193656   -89.731639    52.966906 
   42200    59.193242    4.5704958      2204118          147  0.007193656   -89.087267    51.009119 
   42300    59.382864    4.7439356      2204118          147  0.007193656   -88.235614    52.309562 
   42400      60.5056    5.0054273      2204118          147  0.007193656   -87.059243    56.143184 
   42500    61.019131    5.1387307      2204118          147  0.007193656   -86.576448    57.841384 
   42600    60.115745    5.0694131      2204118          147  0.007193656   -87.073786    55.205947 
   42700     58.92687    5.0340767      2204118          147  0.007193656   -87.153363    52.312584 
   42800    59.308264     5.163265      2204118          147  0.007193656   -86.653402    53.715214 
   42900    60.677153    5.4182238      2204118          147  0.007193656   -85.576646    58.031807 
   43000    60.840382    5.6367948      2204118          147  0.007193656   -84.300858    59.693918 
   43100    59.971862    5.6384846      2204118          147  0.007193656    -84.14646    57.792735 
   43200    59.522517    5.5028281      2204118          147  0.007193656   -85.084913    55.790788 
   43300    59.841623    5.4148436      2204118          147  0.007193656   -85.872647    55.758303 
   43400     60.27491    5.3886118      2204118          147  0.007193656   -86.289836    56.366601 
   43500    60.076668    5.4066932      2204118          147  0.007193656   -86.117517    56.069728 
   43600    59.649419    5.4496943      2204118          147  0.007193656    -85.74988    55.426169 
   43700      59.7771    5.5391987      2204118          147  0.007193656    -85.20003     56.27821 
   43800    60.289945    5.6403008      2204118          147  0.007193656   -84.745563     57.94646 
   43900    60.356566    5.7060205      2204118          147  0.007193656   -84.367734    58.481965 
   44000    59.895711    5.7161681      2204118          147  0.007193656   -84.203332    57.555631 
   44100    59.706717    5.6982647      2204118          147  0.007193656   -84.364718    56.946941 
   44200    60.077054    5.6832115      2204118          147  0.007193656   -84.685645    57.502514 
   44300    60.271881    5.6791691      2204118          147  0.007193656   -84.871979    57.777288 
   44400    59.804696    5.7260747      2204118          147  0.007193656   -84.459434    57.084119 
   44500    59.507962    5.8446323      2204118          147  0.007193656   -83.586021    57.255233 
   44600    60.143404    5.9618222      2204118          147  0.007193656    -83.05772    59.287473 
   44700     60.77294    5.9797524      2204118          147  0.007193656    -83.23311    60.602045 
   44800    60.193013     5.896055      2204118          147  0.007193656   -83.642205    58.820402 
   44900    59.217548      5.82164      2204118          147  0.007193656   -83.789548    56.364363 
   45000    59.546493     5.816516      2204118          147  0.007193656   -83.829062    57.103386 
   45100    60.740474    5.8087391      2204118          147  0.007193656   -84.258639    59.499678 
   45200    60.574092    5.7790783      2204118          147  0.007193656   -84.384319    58.980212 
   45300    59.205554    5.7879447      2204118          147  0.007193656   -83.804457    56.321069 
   45400    59.127183    5.8789919      2204118          147  0.007193656    -83.06708    56.872959 
   45500    60.737232    5.9638237      2204118          147  0.007193656   -82.971649    60.778994 
   45600    61.265493    5.9342011      2204118          147  0.007193656   -83.306329    61.694583 
   45700    59.493259    5.8502859      2204118          147  0.007193656   -83.261442    57.545014 
   45800    58.342001    5.8973955      2204118          147  0.007193656   -82.509763    55.571937 
   45900    60.042611    6.0520712      2204118          147  0.007193656   -81.995522    60.111118 
   46000    61.829303    6.1692951      2204118          147  0.007193656   -81.765174    64.570142 
   46100    60.336645    6.1896711      2204118          147  0.007193656   -81.068063    61.734487 
   46200    58.442392    6.1369389      2204118          147  0.007193656    -80.75244    57.566861 
   46300    59.349444    6.1372084      2204118          147  0.007193656   -81.102859    59.363219 
   46400    61.265408    6.2334408      2204118          147  0.007193656   -81.097877    63.902836 
   46500    60.872138    6.2827908      2204118          147  0.007193656   -80.647517    63.422418 
   46600    58.940703    6.2861209      2204118          147  0.007193656   -79.961664    59.537021 
   46700    58.825457    6.3592874      2204118          147  0.007193656   -79.365514    59.860413 
   46800    60.861725    6.4620997      2204118          147  0.007193656    -79.23776     64.80753 
   46900    61.509106     6.463919      2204118          147  0.007193656   -79.294555    66.282933 
   47000    59.484667     6.371597      2204118          147  0.007193656   -79.001677    61.784441 
   47100    58.552722    6.2481901      2204118          147  0.007193656   -79.307824    59.272602 
   47200    60.054637    6.2333356      2204118          147  0.007193656     -79.6852    62.449902 
   47300    61.340165    6.2668001      2204118          147  0.007193656   -79.609771    65.567874 
   47400    60.386545    6.1755351      2204118          147  0.007193656   -79.647012    63.273641 
   47500    58.860702    6.0336524      2204118          147  0.007193656   -79.854003    59.455339 
   47600    59.339704    5.9571174      2204118          147  0.007193656   -80.279232    60.163793 
   47700    60.978776    5.9229688      2204118          147  0.007193656   -80.839555    63.482768 
   47800      60.8205    5.8581619      2204118          147  0.007193656   -81.069349     62.87837 
   47900    59.148733    5.7784098      2204118          147  0.007193656   -80.935118    59.055926 
   48000    58.898664    5.7855725      2204118          147  0.007193656    -80.66594    58.733249 
   48100    60.494465    5.8877271      2204118          147  0.007193656   -80.366225    62.809848 
   48200    61.239558    5.9524974      2204118          147  0.007193656   -80.107282     64.83225 
   48300    59.891825     5.912617      2204118          147  0.007193656   -79.796286     61.95348 
   48400    58.830794    5.8504679      2204118          147  0.007193656   -79.733002    59.505556 
   48500    59.794372    5.8522481      2204118          147  0.007193656   -79.978548     61.54057 
   48600    61.087233    5.8941786      2204118          147  0.007193656    -79.96418    64.614835 
   48700    60.401906    5.8882767      2204118          147  0.007193656   -79.669601    63.287406 
   48800     58.99042    5.8757691      2204118          147  0.007193656    -79.12197    60.494384 
   48900    59.320953    5.9229764      2204118          147  0.007193656   -78.771546    61.627102 
   49000    60.854138    6.0037101      2204118          147  0.007193656    -78.57349    65.453843 
   49100    61.004844    5.9889387      2204118          147  0.007193656    -78.54288    65.841137 
   49200    59.506343    5.8684846      2204118          147  0.007193656   -78.677881    62.159542 
   49300    58.921394    5.7661976      2204118          147  0.007193656   -78.980641    60.472346 
   49400    60.149886    5.7482285      2204118          147  0.007193656   -79.320845    63.039689 
   49500    61.021676    5.7606995      2204118          147  0.007193656   -79.316008    65.107848 
   49600    59.957776    5.7575846      2204118          147  0.007193656   -78.748169    63.157687 
   49700    58.899365    5.7820405      2204118          147  0.007193656   -77.936917    61.463931 
   49800    60.010784    5.7714423      2204118          147  0.007193656   -78.099976    63.931337 
   49900    61.379564    5.6626083      2204118          147  0.007193656   -78.976605    66.294288 
   50000    60.346565    5.4505617      2204118          147  0.007193656   -79.756956    63.069072 
   50100    58.468665    5.3191749      2204118          147  0.007193656   -79.658561    58.722922 
   50200    58.914885    5.3985893      2204118          147  0.007193656   -78.899388    60.538193 
   50300    61.251086    5.5532548      2204118          147  0.007193656   -78.329734    66.637081 
   50400    61.614706    5.5610688      2204118          147  0.007193656   -78.127995    67.699423 
   50500    59.198733    5.4467343      2204118          147  0.007193656   -77.809344    62.300036 
   50600    58.266889    5.3591192      2204118          147  0.007193656    -77.81243    60.091499 
   50700    60.324923    5.3763586      2204118          147  0.007193656   -78.054141    64.720666 
   50800    61.620487    5.4500504      2204118          147  0.007193656   -77.590936    68.250164 
   50900    60.176979     5.379609      2204118          147  0.007193656   -77.182561    65.242096 
   51000    58.639779    5.2320385      2204118          147  0.007193656    -77.31708     61.46939 
   51100     59.33821    5.2086822      2204118          147  0.007193656   -77.318471    63.121019 
   51200    61.210493    5.2215601      2204118          147  0.007193656   -77.501691    67.369049 
   51300    60.981951    5.1602537      2204118          147  0.007193656   -77.420835       66.909 
   51400    59.177744    4.9911018      2204118          147  0.007193656   -77.591665     62.46804 
   51500    58.924147    4.8390288      2204118          147  0.007193656   -78.231403    61.228099 
   51600     60.45035     4.792113      2204118          147  0.007193656   -78.755527    64.316136 
   51700    60.986313      4.79953      2204118          147  0.007193656    -78.60817     65.73199 
   51800    59.604844    4.8115722      2204118          147  0.007193656   -77.844412    63.226138 
   51900    58.935852    4.8447118      2204118          147  0.007193656   -77.163058    62.324147 
   52000    60.232229    4.8988766      2204118          147  0.007193656   -76.957406    65.598016 
   52100    61.242611    4.8904513      2204118          147  0.007193656   -77.086725    67.860033 
   52200    60.136994     4.771943      2204118          147  0.007193656   -77.213547    65.116476 
   52300    58.832373    4.6341584      2204118          147  0.007193656   -77.378789    61.863505 
   52400    59.490352    4.5903705      2204118          147  0.007193656   -77.514056    63.285518 
   52500    60.992686    4.5981603      2204118          147  0.007193656   -77.572388    66.782857 
   52600    60.803936    4.5268351      2204118          147  0.007193656   -77.632877     66.27564 
   52700    59.253907     4.395414      2204118          147  0.007193656   -77.668585     62.57138 
   52800    58.969878    4.3272336      2204118          147  0.007193656   -77.736607    61.831129 
   52900    60.416863    4.3523534      2204118          147  0.007193656   -77.726246    65.266161 
   53000     61.09509    4.3710357      2204118          147  0.007193656   -77.570007    67.027602 
   53100    59.833866    4.3331315      2204118          147  0.007193656   -77.132389    64.480202 
   53200    58.927718    4.2868184      2204118          147  0.007193656   -76.915032     62.55292 
   53300    59.952869     4.283331      2204118          147  0.007193656   -77.043543      64.8507 
   53400    61.151072    4.2566345      2204118          147  0.007193656   -77.396658    67.333447 
   53500    60.368275    4.1407314      2204118          147  0.007193656   -77.756511    65.120899 
   53600    58.832866    4.0545926      2204118          147  0.007193656   -77.652257    61.591204 
   53700    59.033435    4.1458786      2204118          147  0.007193656   -76.893611     62.82455 
   53800    60.801721    4.3396706      2204118          147  0.007193656   -75.963145    67.940129 
   53900    61.380242    4.4136428      2204118          147  0.007193656   -75.441689    69.830808 
   54000    59.727742    4.3213044      2204118          147  0.007193656   -75.326044    66.035378 
   54100    58.556898    4.2493123      2204118          147  0.007193656   -75.177964    63.412346 
   54200    59.948704    4.2408518      2204118          147  0.007193656   -75.453311    66.431075 
   54300    61.506356    4.2221462      2204118          147  0.007193656   -75.849609     69.72137 
   54400    60.232659    4.1684196      2204118          147  0.007193656   -75.575616    66.980823 
   54500    58.371504    4.1804467      2204118          147  0.007193656    -74.58029    63.571237 
   54600    59.306591    4.2898647      2204118          147  0.007193656   -73.904629    66.460027 
   54700    61.660552    4.3841706      2204118          147  0.007193656   -73.777293    72.158632 
   54800    61.101341    4.3695006      2204118          147  0.007193656   -73.387467    71.224938 
   54900    58.674713    4.2727185      2204118          147  0.007193656   -72.928745    65.940405 
   55000    58.818229     4.170854      2204118          147  0.007193656   -73.445394    65.763425 
   55100    60.961371    4.1658159      2204118          147  0.007193656   -74.024554    70.256573 
   55200    61.204551    4.1883214      2204118          147  0.007193656   -73.799456    71.057222 
   55300    59.202865    4.1942914      2204118          147  0.007193656   -72.928649    67.190512 
   55400    58.699777    4.2176783      2204118          147  0.007193656   -72.520899    66.407572 
   55500    60.401252    4.3430526      2204118          147  0.007193656   -72.158469    70.796991 
   55600    61.447444    4.4339455      2204118          147  0.007193656   -71.896575    73.534972 
   55700    59.926832    4.4418891      2204118          147  0.007193656   -71.355521    70.477099 
   55800    58.371067    4.5262235      2204118          147  0.007193656   -70.168116    67.982376 
   55900    59.693374    4.6781678      2204118          147  0.007193656   -69.534379      71.7457 
   56000    61.913246    4.7393287      2204118          147  0.007193656    -69.80139      76.7326 
   56100    60.772367    4.6665977      2204118          147  0.007193656   -69.841732    73.992069 
   56200    58.290628    4.5566972      2204118          147  0.007193656   -69.621671    68.338441 
   56300    58.833002    4.5218005      2204118          147  0.007193656   -69.958217    69.285566 
   56400    61.484589    4.5403143      2204118          147  0.007193656   -70.600597    74.918865 
   56500    61.469865    4.4907321      2204118          147  0.007193656   -70.754247    74.730367 
   56600    58.822586    4.3668555      2204118          147  0.007193656   -70.552951    68.666179 
   56700    58.352295    4.2845481      2204118          147  0.007193656   -70.788654    67.317409 
   56800    60.682677    4.3201896      2204118          147  0.007193656   -71.181533    72.439992 
   56900    61.688486    4.3732576      2204118          147  0.007193656    -71.01253    74.989506 
   57000    59.903995    4.2597981      2204118          147  0.007193656   -71.129778    70.648792 
   57100    58.258381    4.1872792      2204118          147  0.007193656   -71.068233    66.815557 
   57200     59.09805    4.4028416      2204118          147  0.007193656    -69.84989    70.021199 
   57300    61.611511    4.6640679      2204118          147  0.007193656   -68.903551    76.916304 
   57400    61.888316    4.6196984      2204118          147  0.007193656   -69.442254    77.032734 
   57500    58.473909    4.5956794      2204118          147  0.007193656   -68.485423    69.908471 
   57600      57.5746    4.7262364      2204118          147  0.007193656    -67.29218    68.973264 
   57700    61.378252    4.8308658      2204118          147  0.007193656   -68.038729    77.229058 
   57800    62.702027    4.9081908      2204118          147  0.007193656    -68.18132    80.219529 
   57900    58.889932    4.9542535      2204118          147  0.007193656   -66.782412    72.596111 
   58000    57.049033    5.0861257      2204118          147  0.007193656   -65.536811    69.484738 
   58100    60.336547    5.3744737      2204118          147  0.007193656   -64.954721    77.847596 
   58200    63.007469    5.6960426      2204118          147  0.007193656   -63.863072    85.260686 
   58300    60.395161    5.7877561      2204118          147  0.007193656   -62.511098    80.429944 
   58400    57.763568    5.6389724      2204118          147  0.007193656   -62.857708    73.854977 
   58500    58.872005    5.6566616      2204118          147  0.007193656   -63.269935    76.066159 
   58600     61.52401    5.9076527      2204118          147  0.007193656   -62.416808    83.195954 
   58700    62.005888    5.8935567      2204118          147  0.007193656   -62.771729    83.981524 
   58800    59.276271    5.6461045      2204118          147  0.007193656   -63.694399    76.598497 
   58900    57.743417    5.4954325      2204118          147  0.007193656   -64.344924    72.320069 
   59000    59.941035    5.5359916      2204118          147  0.007193656   -65.027212    76.839024 
   59100    61.833456    5.7584649      2204118          147  0.007193656   -64.409613    81.935533 
   59200    59.582795    6.1868279      2204118          147  0.007193656   -60.932455    80.085911 
   59300    57.739308    6.7508516      2204118          147  0.007193656   -56.545035    80.110234 
   59400    61.025972    7.0336545      2204118          147  0.007193656   -55.819022    88.615002 
   59500    63.601192    6.8862015      2204118          147  0.007193656    -57.93774    92.591219 
   59600    59.129467    6.7366552      2204118          147  0.007193656   -57.582449    82.362997 
   59700    56.110481    6.7231475      2204118          147  0.007193656   -56.757596    76.042625 
   59800    60.020622    6.8356036      2204118          147  0.007193656   -57.356464    84.698134 
   59900    64.691329    6.7310065      2204118          147  0.007193656   -59.743384    93.365671 
   60000    60.410231     6.509194      2204118          147  0.007193656   -59.895569    83.081141 
   60100    54.843104      6.57323      2204118          147  0.007193656   -57.557704    72.242935 
   60200    58.060882     6.897611      2204118          147  0.007193656   -56.418426    80.997932 
   60300    66.068841    6.9991354      2204118          147  0.007193656    -58.51671    97.852591 
   60400    63.310778    6.6376198      2204118          147  0.007193656   -60.370492    89.471126 
   60500    53.929384    6.5279858      2204118          147  0.007193656   -58.049599    69.588482 
   60600     54.48194    6.9119272      2204118          147  0.007193656    -55.64324     73.30261 
   60700    65.888391    7.2543607      2204118          147  0.007193656    -57.40774    98.534478 
   60800    66.453349    7.4661767      2204118          147  0.007193656   -56.291399    100.98794 
   60900    56.004668    7.1065961      2204118          147  0.007193656    -55.53066    77.019127 
   61000     53.12735    6.9479317      2204118          147  0.007193656   -55.950072    69.789784 
   61100    61.188892    7.3556957      2204118          147  0.007193656   -56.103621    88.715997 
   61200    66.507362    8.1651717      2204118          147  0.007193656   -52.379457    105.02772 
   61300    60.794274    8.2492194      2204118          147  0.007193656   -50.075114    93.810537 
   61400    54.836979    8.0262342      2204118          147  0.007193656   -49.820459    79.965684 
   61500     57.55715    8.1080824      2204118          147  0.007193656   -50.232811    85.991333 
   61600    64.812213    8.3111057      2204118          147  0.007193656   -51.249269    102.14589 
   61700    62.408786    8.5940358      2204118          147  0.007193656   -48.031684    99.675133 
   61800    58.498421     7.764508      2204118          147  0.007193656   -52.305407    86.146502 
   61900    58.121442    6.7534333      2204118          147  0.007193656   -59.211927    78.347763 
   62000    59.029155    6.5429916      2204118          147  0.007193656   -60.953365    78.754666 
   62100    60.312287    6.8960365      2204118          147  0.007193656   -59.195985    83.548916 
   62200    59.888303    7.6718685      2204118          147  0.007193656   -54.035862    87.705569 
   62300    60.800189    8.0463933      2204118          147  0.007193656   -52.303724    91.595924 
   62400    61.084451    8.1210411      2204118          147  0.007193656   -52.436045    92.136385 
   62500    59.929083    7.9486267      2204118          147  0.007193656   -53.830621    88.007327 
   62600    58.130495     8.059364      2204118          147  0.007193656   -52.881142    84.699974 
   62700    59.258407     8.373185      2204118          147  0.007193656   -51.448772    88.801845 
   62800    61.787987    8.7105189      2204118          147  0.007193656   -50.279743     95.95779 
   62900    61.575823    8.7837891      2204118          147  0.007193656   -49.934715    95.800676 
   63000    58.915159     8.646939      2204118          147  0.007193656   -50.237748    89.200481 
   63100    58.059011    8.6225318      2204118          147  0.007193656   -50.371238    87.040692 
   63200    59.539656    9.0590305      2204118          147  0.007193656   -47.992344    92.923922 
   63300    61.708445     9.583104      2204118          147  0.007193656   -45.148603    100.90067 
   63400    62.182647    9.5238781      2204118          147  0.007193656    -45.86513    101.30647 
   63500    59.274051    9.1557987      2204118          147  0.007193656   -47.526117    92.761525 
   63600    57.193203    9.0172826      2204118          147  0.007193656   -47.635779    87.726988 
   63700    59.661687    9.1230473      2204118          147  0.007193656   -47.574363    93.630721 
   63800    63.154113    9.1340991      2204118          147  0.007193656   -48.505888    100.96494 
   63900      61.1607    8.8808138      2204118          147  0.007193656   -49.452039    95.300855 
   64000    56.634783     8.790129      2204118          147  0.007193656   -48.239028    85.802091 
   64100    58.945426    8.5279756      2204118          147  0.007193656   -50.708225    88.801639 
   64200    62.494501     8.577559      2204118          147  0.007193656    -51.36937    96.540312 
   64300    60.410441     8.904132      2204118          147  0.007193656   -48.140399    94.836807 
   64400     58.27197     8.981256      2204118          147  0.007193656   -46.645442     91.27051 
   64500    60.504839    8.6802094      2204118          147  0.007193656   -49.387548    93.813076 
   64600    61.655142     8.407972      2204118          147  0.007193656   -51.450747    94.472372 
   64700     59.52211    8.1635869      2204118          147  0.007193656    -52.14776    88.726979 
   64800    58.704658    7.7986737      2204118          147  0.007193656   -54.318789    84.621233 
   64900    59.882381    7.6168204      2204118          147  0.007193656   -55.877221    85.850193 
   65000    60.915723    7.5895213      2204118          147  0.007193656   -56.391732    87.781358 
   65100      59.7012    7.7412195      2204118          147  0.007193656   -55.023112    86.275491 
   65200    58.608631    8.0537173      2204118          147  0.007193656   -52.548044    86.164707 
   65300    60.525618    8.2407912      2204118          147  0.007193656   -51.953743    91.296061 
   65400    62.161555    8.1694749      2204118          147  0.007193656   -53.116094    94.005586 
   65500    59.893437    8.0043487      2204118          147  0.007193656   -53.546776    88.206806 
   65600    57.193412    8.0952798      2204118          147  0.007193656   -52.056259    83.307003 
   65700    58.966147    8.4701435      2204118          147  0.007193656   -50.190915    89.367989 
   65800    63.454979    8.6565064      2204118          147  0.007193656   -50.702863    99.480044 
   65900    61.860128    8.6077669      2204118          147  0.007193656   -50.893904     95.51437 
   66000    57.073625    8.4637555      2204118          147  0.007193656   -50.642048    84.437706 
   66100     56.91664    8.6397338      2204118          147  0.007193656   -49.537404    85.170803 
   66200    62.078246    8.9916444      2204118          147  0.007193656   -48.840731    98.083775 
   66300    64.015194    9.0884323      2204118          147  0.007193656   -48.673121    102.83568 
   66400    59.428216    8.6916768      2204118          147  0.007193656   -49.628401    91.024112 
   66500    56.630211    8.1387565      2204118          147  0.007193656   -52.341843    81.688456 
   66600    58.814785    8.0494632      2204118          147  0.007193656   -53.505685    85.694983 
   66700    62.233606    8.3549282      2204118          147  0.007193656   -52.405816     94.88639 
   66800    61.722292    8.5362357      2204118          147  0.007193656   -50.900979     95.18107 
   66900    58.747149    8.4203839      2204118          147  0.007193656   -50.725132    88.315457 
   67000    58.086883    8.3554716      2204118          147  0.007193656   -50.973316     86.50458 
   67100    60.159282    8.6018588      2204118          147  0.007193656   -49.936073      92.4467 
   67200     61.89345    8.8899448      2204118          147  0.007193656   -48.390776    98.096362 
   67300    61.374297    8.6459946      2204118          147  0.007193656   -49.954486    95.303941 
   67400    58.467032    8.3214905      2204118          147  0.007193656   -51.079964    87.297653 
   67500    58.462472    8.0163756      2204118          147  0.007193656   -53.034021    85.332804 
   67600     60.92347     7.874325      2204118          147  0.007193656   -54.755375    89.436049 
   67700    60.955792    7.9742677      2204118          147  0.007193656   -53.884283     90.38364 
   67800    59.300605    8.0242986      2204118          147  0.007193656   -52.867082    87.483406 
   67900    59.379421    7.9454195      2204118          147  0.007193656   -53.373933    87.163094 
   68000    60.239744    7.9973694      2204118          147  0.007193656   -53.215395    89.357814 
   68100    60.622065    8.0570975      2204118          147  0.007193656   -52.817422     90.66065 
   68200    60.193565    7.9887941      2204118          147  0.007193656   -53.118851    89.345061 
   68300    59.060858     8.045075      2204118          147  0.007193656    -52.37043    87.412634 
   68400     59.11567    8.3178202      2204118          147  0.007193656    -50.42373    89.489061 
   68500    60.919501    8.5706676      2204118          147  0.007193656   -49.186932    94.995101 
   68600    61.613497      8.58511      2204118          147  0.007193656   -49.202155    96.622401 
   68700    59.476548    8.4766669      2204118          147  0.007193656   -49.035267    91.731636 
   68800    58.199332    8.4220196      2204118          147  0.007193656   -48.644969    89.099067 
   68900    60.366036    8.3569483      2204118          147  0.007193656   -49.495197    93.376915 
   69000    62.576919    8.0391195      2204118          147  0.007193656   -52.231294    95.873454 
   69100    59.740081    7.7403659      2204118          147  0.007193656   -53.086865    88.303758 
   69200    56.856881    7.6768962      2204118          147  0.007193656    -52.27656    82.290212 
   69300    59.465359     7.759842      2204118          147  0.007193656   -52.297255    88.443167 
   69400    63.552484    7.7313186      2204118          147  0.007193656   -53.574459    96.839219 
   69500     61.31649    7.4640593      2204118          147  0.007193656   -54.307771     90.81384 
   69600    57.093013    7.0608753      2204118          147  0.007193656   -55.342082    79.783559 
   69700    58.208479    6.7257907      2204118          147  0.007193656   -57.810315     79.95537 
   69800    61.964341     6.676896      2204118          147  0.007193656   -59.151962    87.502959 
   69900     61.91214    6.6493426      2204118          147  0.007193656   -59.171655    87.359719 
   70000    58.455556    6.5432676      2204118          147  0.007193656   -58.780226    79.570231 
   70100    57.307878    6.7010954      2204118          147  0.007193656   -57.298984    78.335191 
   70200    60.527312     7.112548      2204118          147  0.007193656   -55.590442     87.66337 
   70300    63.348994    7.3589288      2204118          147  0.007193656   -54.936646    94.995421 
   70400    60.612865    7.2330437      2204118          147  0.007193656   -55.039117     88.41718 
   70500    56.823723    7.1137787      2204118          147  0.007193656    -54.58838    79.899917 
   70600    58.231688    7.2486674      2204118          147  0.007193656   -54.116945    83.703671 
   70700    62.579358    7.5661214      2204118          147  0.007193656   -53.222683    94.887838 
   70800    62.590428    7.6504065      2204118          147  0.007193656   -52.376769     95.75995 
   70900    58.778835    7.2987748      2204118          147  0.007193656   -53.335152     85.78043 
   71000    57.440735    6.9442245      2204118          147  0.007193656   -55.146742    80.801875 
   71100    59.968207    6.9312592      2204118          147  0.007193656   -55.824775    86.105768 
   71200    62.210255    7.0681301      2204118          147  0.007193656   -55.434087    91.802855 
   71300    60.565116    7.0624074      2204118          147  0.007193656   -54.741539    88.601747 
   71400    58.283728    6.9162392      2204118          147  0.007193656   -54.781195    83.162587 
   71500    59.329291    6.7419559      2204118          147  0.007193656   -56.135771    84.282611 
   71600    61.281076    6.6914874      2204118          147  0.007193656   -56.886652    88.151141 
   71700    60.922676    6.5784871      2204118          147  0.007193656   -57.206527    86.983019 
   71800     59.24837    6.3036574      2204118          147  0.007193656   -58.234902    81.991959 
   71900    58.813153    6.1090781      2204118          147  0.007193656   -59.067833    80.128971 
   72000    60.274486    6.0434743      2204118          147  0.007193656   -59.696936    82.958499 
   72100    61.096995    6.0288733      2204118          147  0.007193656   -59.837057     84.76506 
   72200    59.677272     6.065284      2204118          147  0.007193656   -58.890432    82.351538 
   72300    58.851051    6.1236237      2204118          147  0.007193656   -57.990929    81.295573 
   72400    60.480414    6.1009532      2204118          147  0.007193656   -58.554069    84.588749 
   72500    61.481345    5.9851435      2204118          147  0.007193656   -59.666726    85.845059 
   72600    59.464017    5.9395302      2204118          147  0.007193656   -59.260936    81.476311 
   72700    58.099582    6.0418129      2204118          147  0.007193656   -58.174814    79.333138 
   72800    59.914318    6.3032093      2204118          147  0.007193656    -57.11851    84.684493 
   72900     61.71938    6.6516131      2204118          147  0.007193656   -55.387772    90.687383 
   73000     60.82726     6.755907      2204118          147  0.007193656   -54.486264    89.477455 
   73100    59.188014    6.5610618      2204118          147  0.007193656   -55.291355    84.792656 
   73200    58.919057    6.4184238      2204118          147  0.007193656   -56.102896    83.344558 
   73300    60.292897    6.4066679      2204118          147  0.007193656   -56.541635    86.157374 
   73400    61.087387    6.4158728      2204118          147  0.007193656   -56.531093    88.048285 
   73500    59.855731    6.3948938      2204118          147  0.007193656   -56.112467    85.551872 
   73600    58.852291    6.3976978      2204118          147  0.007193656   -55.646775    83.642659 
   73700    60.034182    6.4088032      2204118          147  0.007193656   -55.911094    86.175596 
   73800     61.04754    6.4615894      2204118          147  0.007193656   -55.838114    88.646956 
   73900    59.695281    6.6300585      2204118          147  0.007193656   -53.965289    87.319305 
   74000    59.355498    6.6356366      2204118          147  0.007193656   -53.491066    86.989342 
   74100     61.15701    6.3081807      2204118          147  0.007193656   -56.105998    88.638161 
   74200    61.023522    5.8704398      2204118          147  0.007193656   -58.783801    85.644423 
   74300    58.635738    5.5538741      2204118          147  0.007193656   -59.921263    78.855643 
   74400    57.986434    5.5698306      2204118          147  0.007193656    -59.42267    77.817487 
   74500    60.428125    5.8650896      2204118          147  0.007193656   -58.125163    84.893898 
   74600     62.11275    6.1746658      2204118          147  0.007193656     -56.6186    90.387569 
   74700    60.134341    6.3218189      2204118          147  0.007193656   -55.072965     87.25078 
   74800    58.521857    6.2680263      2204118          147  0.007193656    -54.98649    83.520887 
   74900    59.888967    6.1470671      2204118          147  0.007193656   -56.365055    85.377946 
   75000    61.126794    6.1352038      2204118          147  0.007193656   -56.834156    87.838489 
   75100    60.371688    6.0486869      2204118          147  0.007193656   -57.105049     85.78044 
   75200    59.344945    5.8179512      2204118          147  0.007193656   -58.253979    82.201451 
   75300    59.275232    5.6898926      2204118          147  0.007193656   -59.053529    81.236908 
   75400    60.035766     5.760765      2204118          147  0.007193656   -58.722984    83.367457 
   75500    60.614663    5.8782873      2204118          147  0.007193656   -58.029693     85.43086 
   75600    60.205752    5.9271568      2204118          147  0.007193656   -57.490359    85.002398 
   75700    59.659528     5.884923      2204118          147  0.007193656   -57.524492    83.675482 
   75800    59.786568    5.8287901      2204118          147  0.007193656   -57.917145    83.583503 
   75900    60.091583    5.8536228      2204118          147  0.007193656   -57.766877    84.455668 
[...]
  381700    58.419196    5.3928094      2204118          147  0.007193656   -40.125085    98.139317 
  381800    58.894018    5.4532564      2204118          147  0.007193656   -39.773451    99.614743 
  381900    60.188447    5.6002822      2204118          147  0.007193656   -39.083498     103.3683 
  382000    60.701954    5.6965911      2204118          147  0.007193656   -38.464971    105.20218 
  382100    59.787341    5.6429704      2204118          147  0.007193656   -38.411862    103.09062 
  382200    56.297001    5.3926021      2204118          147  0.007193656   -38.850811    94.390858 
  382300    58.408688    5.3582662      2204118          147  0.007193656   -39.697671    98.541861 
  382400    61.706088    5.4126762      2204118          147  0.007193656   -40.286118    105.75758 
  382500     60.68588    5.3745315      2204118          147  0.007193656   -40.038197    103.59091 
  382600    58.661045    5.2858834      2204118          147  0.007193656    -39.86542    98.971381 
  382700    59.143803    5.2353483      2204118          147  0.007193656   -40.280003    99.699372 
  382800    63.996837    5.4204888      2204118          147  0.007193656   -40.438876    111.02648 
  382900    61.900445    5.3393839      2204118          147  0.007193656   -40.036682    106.46701 
  383000    59.128337     5.144853      2204118          147  0.007193656   -40.217593    99.725176 
  383100    59.546997    4.9879247      2204118          147  0.007193656   -41.381935    99.551704 
  383200    60.800598    4.9525033      2204118          147  0.007193656   -41.964553    101.93606 
  383300     61.76744    4.9483707      2204118          147  0.007193656   -42.239164    103.94974 
  383400    59.425225    4.8403096      2204118          147  0.007193656   -42.256403    98.389032 
  383500    57.356554    4.8187316      2204118          147  0.007193656   -41.849282    93.900098 
  383600    59.994633    5.0539814      2204118          147  0.007193656   -41.248738    100.74435 
  383700    61.893126    5.2393248      2204118          147  0.007193656   -40.817125    105.66925 
  383800    60.520914    5.2143069      2204118          147  0.007193656   -40.800778    102.43789 
  383900     59.47427    5.1576525      2204118          147  0.007193656   -41.091858    99.669653 
  384000    59.498261    5.2232793      2204118          147  0.007193656   -40.873786    99.944507 
  384100    60.050204    5.3646022      2204118          147  0.007193656   -40.274427    101.85019 
  384200    60.565658    5.4106566      2204118          147  0.007193656   -40.320637    103.02393 
  384300     59.16296    5.3500564      2204118          147  0.007193656   -40.469903    99.554813 
  384400    55.420445    5.2216828      2204118          147  0.007193656   -40.214253    90.952814 
  384500    59.123674    5.4139722      2204118          147  0.007193656   -40.303679    99.628054 
  384600    61.622797    5.6457191      2204118          147  0.007193656   -39.717139    106.12943 
  384700    60.359118    5.8143828      2204118          147  0.007193656   -38.288276    104.56746 
  384800    58.245099    5.8165663      2204118          147  0.007193656   -37.737697    100.11466 
  384900    58.968663    5.8628251      2204118          147  0.007193656   -37.858993    101.70587 
  385000    62.998104    6.1063289      2204118          147  0.007193656   -37.627803    111.47379 
  385100    61.840877    6.0281147      2204118          147  0.007193656   -37.878545    108.48416 
  385200    59.450696    5.8470888      2204118          147  0.007193656   -38.446919     102.2588 
  385300    59.511371      5.80446      2204118          147  0.007193656   -38.688572    102.16075 
  385400    60.745364    5.6660801      2204118          147  0.007193656   -40.010267    103.75962 
  385500    60.684639    5.4217342      2204118          147  0.007193656   -41.606707    102.01946 
  385600    56.851513    5.1852403      2204118          147  0.007193656    -41.84686    92.707208 
  385700    57.754563    5.3355049      2204118          147  0.007193656   -40.972725    95.718648 
  385800    60.657775    5.5861899      2204118          147  0.007193656   -40.095836    103.46675 
  385900    60.779728    5.5761548      2204118          147  0.007193656   -40.111038    103.74019 
  386000    59.634704    5.4213492      2204118          147  0.007193656   -40.722824     100.4184 
  386100    57.923205    5.3136334      2204118          147  0.007193656    -40.66045     96.43006 
  386200    58.609631    5.2853615      2204118          147  0.007193656   -40.953426     97.76169 
  386300    62.833132    5.2997098      2204118          147  0.007193656   -42.109781    106.60136 
  386400    61.558099    5.1010062      2204118          147  0.007193656   -42.921461    102.77198 
  386500    58.671436     4.899772      2204118          147  0.007193656   -43.181173    95.680223 
  386600    59.175784    4.8761159      2204118          147  0.007193656   -43.422154    96.632914 
  386700    60.658645    4.9345307      2204118          147  0.007193656    -43.45979    100.10486 
  386800    60.767348       5.0361      2204118          147  0.007193656   -42.721132    101.10079 
  386900    57.512052    5.0623887      2204118          147  0.007193656   -41.450242    94.667166 
  387000    56.844701    5.1636144      2204118          147  0.007193656   -40.455534    94.082412 
  387100    60.981375    5.3309689      2204118          147  0.007193656   -40.601726    103.72675 
  387200    61.684142    5.2513888      2204118          147  0.007193656   -41.227955     104.7638 
  387300    58.999214    5.1358012      2204118          147  0.007193656   -40.944614    98.692552 
  387400    57.816618     5.162549      2204118          147  0.007193656   -40.118694    96.719547 
  387500    62.832451    5.2556168      2204118          147  0.007193656    -40.95133     107.7582 
  387600    63.568298    5.0790194      2204118          147  0.007193656   -42.183134    108.26797 
  387700    60.323281    4.8814868      2204118          147  0.007193656   -42.247466    100.52346 
  387800     58.37299    4.9000409      2204118          147  0.007193656   -41.264345    96.890699 
  387900    59.570958     5.066271      2204118          147  0.007193656   -40.395031    100.59532 
  388000    62.535009    5.1935824      2204118          147  0.007193656   -40.457998    107.54756 
  388100    60.717646    5.1338632      2204118          147  0.007193656   -40.152351    103.55194 
  388200    56.606746    4.9728772      2204118          147  0.007193656   -39.769845    94.204918 
  388300    58.316043    4.9919108      2204118          147  0.007193656   -40.105612    97.914651 
  388400    60.910295    5.0647576      2204118          147  0.007193656   -40.326962    103.83328 
  388500    61.562909    5.0007319      2204118          147  0.007193656   -40.797748    104.90708 
  388600    58.950608    4.7154587      2204118          147  0.007193656    -41.72738    97.794749 
  388700    57.517065    4.5150082      2204118          147  0.007193656   -42.506099    93.623172 
  388800    60.621413    4.6452969      2204118          147  0.007193656   -42.622545    100.85398 
  388900    62.655981    4.9074152      2204118          147  0.007193656   -41.556144    106.73572 
  389000    60.406389    5.0822222      2204118          147  0.007193656   -39.632046    103.33557 
  389100    58.839285    5.1028877      2204118          147  0.007193656   -39.066923    100.19173 
  389200    59.764542    5.0474744      2204118          147  0.007193656    -39.88473    101.56379 
  389300     62.20537    5.0826202      2204118          147  0.007193656   -40.419837    106.80554 
  389400     61.56362    4.9870317      2204118          147  0.007193656     -40.9036    104.80291 
  389500    57.743011    4.7029247      2204118          147  0.007193656   -41.676999    94.987034 
  389600    58.646944    4.7344494      2204118          147  0.007193656   -41.962911    96.840517 
  389700    60.665167    5.0187113      2204118          147  0.007193656   -40.922629    102.65745 
  389800    60.190831    5.4019339      2204118          147  0.007193656   -38.415436    104.04201 
  389900    59.238732    5.7708247      2204118          147  0.007193656   -35.725348     104.4787 
  390000    59.565577      5.94666      2204118          147  0.007193656   -34.767874    106.20974 
  390100    60.475575    5.8496021      2204118          147  0.007193656   -35.815957    107.31541 
  390200    60.517781     5.644511      2204118          147  0.007193656    -37.14424    106.08702 
  390300    58.422191    5.3727302      2204118          147  0.007193656    -38.13758    100.13391 
  390400    56.097486    5.1698518      2204118          147  0.007193656   -38.575822    94.193643 
  390500    60.183058    5.4087492      2204118          147  0.007193656   -38.047557    104.39149 
  390600    61.763388    5.4926093      2204118          147  0.007193656   -37.836504    108.34281 
  390700    60.028549     5.289715      2204118          147  0.007193656   -38.472744    103.60062 
  390800    58.531976    5.0227706      2204118          147  0.007193656   -39.704389    98.826937 
  390900    59.431213    4.9624664      2204118          147  0.007193656   -40.373747    100.28586 
  391000    63.589825    5.2286326      2204118          147  0.007193656   -39.940701    110.56135 
  391100    62.137169    5.2882954      2204118          147  0.007193656   -39.138707    107.92526 
  391200    59.255103    5.1561155      2204118          147  0.007193656   -39.246232    100.99657 
  391300    59.644007    5.0933622      2204118          147  0.007193656   -40.019008    101.14423 
  391400    60.478048    5.1367502      2204118          147  0.007193656   -40.126196    103.01102 
  391500    60.795371    5.2098963      2204118          147  0.007193656   -39.907598    103.98065 
  391600    59.325501    5.2402086      2204118          147  0.007193656   -39.372933    101.03648 
  391700    57.822683     5.283097      2204118          147  0.007193656   -38.710593    98.142005 
  391800      60.2971    5.4970378      2204118          147  0.007193656   -38.162566    104.54639 
  391900    62.443161    5.6369345      2204118          147  0.007193656   -38.020875     109.7673 
  392000    60.294577      5.50849      2204118          147  0.007193656   -38.298643    104.40434 
  392100    58.487783    5.4744919      2204118          147  0.007193656   -37.930349    100.49638 
  392200    59.508623      5.45877      2204118          147  0.007193656   -38.378058    102.46476 
  392300    60.952727    5.2986665      2204118          147  0.007193656   -39.947325    104.31334 
  392400    60.382543    5.0646088      2204118          147  0.007193656   -41.376524    101.53466 
  392500    56.830802    4.8375579      2204118          147  0.007193656   -41.660389    92.844661 
  392600     57.42081    4.9381796      2204118          147  0.007193656   -41.087565    94.813895 
  392700    61.375377    5.2385637      2204118          147  0.007193656   -40.378688    104.88229 
  392800    60.379868    5.3303288      2204118          147  0.007193656   -39.367709    103.53714 
  392900    58.979204    5.2732985      2204118          147  0.007193656   -39.316804      100.273 
  393000    59.286669    5.2084985      2204118          147  0.007193656   -39.943652    100.37385 
  393100    61.933949    5.3022403      2204118          147  0.007193656   -40.281127    106.30186 
  393200    62.380845    5.4422563      2204118          147  0.007193656   -39.526802    108.11389 
  393300    57.767226    5.3657132      2204118          147  0.007193656    -38.59071    98.130633 
  393400     57.99514    5.3319146      2204118          147  0.007193656   -39.031315    98.229447 
  393500    60.464273    5.3820071      2204118          147  0.007193656   -39.648818     103.4558 
  393600    60.659828    5.4400358      2204118          147  0.007193656   -39.451687    104.11576 
  393700    59.642936    5.5196131      2204118          147  0.007193656   -38.714891    102.44581 
  393800    59.149693    5.7061243      2204118          147  0.007193656   -37.370255    102.62306 
  393900    63.289469     6.040689      2204118          147  0.007193656   -36.504341    113.28684 
  394000    63.329137    5.9582536      2204118          147  0.007193656   -37.209079    112.67599 
  394100    59.778122    5.6436032      2204118          147  0.007193656   -38.209747    103.27091 
  394200    58.989328    5.5475657      2204118          147  0.007193656   -38.636719    100.97705 
  394300    60.001828     5.623527      2204118          147  0.007193656    -38.32943    103.68069 
  394400    62.606132    5.6729421      2204118          147  0.007193656   -38.717536    109.45635 
  394500    61.948063    5.4262381      2204118          147  0.007193656    -40.08655    106.52984 
  394600    57.979281    5.0913548      2204118          147  0.007193656   -40.870079    96.353149 
  394700    59.368308    4.9511206      2204118          147  0.007193656   -42.184262    98.326464 
  394800    61.871418    4.8881154      2204118          147  0.007193656    -43.41688    103.01812 
  394900    60.390507    4.8590286      2204118          147  0.007193656    -43.03867    99.891358 
  395000    56.169265    4.7599678      2204118          147  0.007193656   -42.304427    90.634922 
  395100    58.234829    4.8751256      2204118          147  0.007193656   -42.331661    95.496388 
  395200     60.04161    5.0508401      2204118          147  0.007193656   -41.842714    100.26156 
  395300    60.127308    5.2939472      2204118          147  0.007193656   -40.207208    102.09989 
  395400    60.168513    5.4998096      2204118          147  0.007193656   -38.845256    103.55937 
  395500    61.396611    5.5664361      2204118          147  0.007193656   -38.835662    106.47558 
  395600    61.539946    5.4859655      2204118          147  0.007193656   -39.412619    106.23786 
  395700    58.512481    5.2109733      2204118          147  0.007193656   -40.164357    98.320828 
  395800     58.18617    5.0619952      2204118          147  0.007193656   -40.951424     96.76146 
  395900    61.530753    5.1031648      2204118          147  0.007193656   -41.672442    103.95628 
  396000    62.815322    5.0959391      2204118          147  0.007193656    -42.10758    106.56141 
  396100    57.246905    4.8214101      2204118          147  0.007193656   -42.183581    93.306286 
  396200    57.838971    4.8703735      2204118          147  0.007193656   -42.147786    94.743361 
  396300    60.897746    5.0819355      2204118          147  0.007193656   -41.880917    102.24963 
  396400    61.225321    5.3237367      2204118          147  0.007193656   -40.526609    104.37923 
  396500    58.636908    5.5655591      2204118          147  0.007193656   -38.145245    100.63443 
  396600    57.536882    5.6575652      2204118          147  0.007193656   -37.300004     98.87617 
  396700    61.896316    5.8265642      2204118          147  0.007193656   -37.676647    108.81727 
  396800    62.417414    5.7901681      2204118          147  0.007193656   -38.062342     109.6649 
  396900    59.550287    5.5111513      2204118          147  0.007193656   -39.021026     101.9204 
  397000    58.983813    5.3883818      2204118          147  0.007193656       -39.65    99.950718 
  397100    59.857172    5.4497959      2204118          147  0.007193656   -39.408289    102.25946 
  397200    60.929574    5.4718105      2204118          147  0.007193656   -39.564596    104.64128 
  397300    60.192908    5.4181477      2204118          147  0.007193656     -39.5761    102.88626 
  397400    56.998702    5.2978626      2204118          147  0.007193656   -39.182803    95.719626 
  397500    58.928616    5.3264246      2204118          147  0.007193656   -39.491216    99.978863 
  397600    62.150883    5.3549682      2204118          147  0.007193656   -40.297166    106.79925 
  397700    60.607335    5.3193406      2204118          147  0.007193656   -39.907972    103.53524 
  397800    57.544924    5.4439651      2204118          147  0.007193656   -37.822558    98.372648 
  397900    59.573173    5.6651521      2204118          147  0.007193656   -36.804629    104.19096 
  398000    63.235366    5.7333911      2204118          147  0.007193656   -37.413692    112.24944 
  398100    60.550344    5.6963449      2204118          147  0.007193656   -36.564589    106.74374 
  398200    58.275566    5.6255993      2204118          147  0.007193656   -36.074369     101.8501 
  398300    59.645611    5.5444473      2204118          147  0.007193656   -36.882442    104.28459 
  398400    62.748171    5.5018221      2204118          147  0.007193656     -37.9461    110.56396 
  398500    60.902352    5.2318329      2204118          147  0.007193656   -38.910441      105.231 
  398600    57.585173     4.938684      2204118          147  0.007193656   -39.569307    96.721159 
  398700    59.398578    4.9551519      2204118          147  0.007193656   -39.826595    100.75577 
  398800    61.719867    4.9359311      2204118          147  0.007193656   -40.573347    105.50296 
  398900    60.666362    4.7706889      2204118          147  0.007193656   -41.214149    102.36876 
  399000    57.029354    4.4913307      2204118          147  0.007193656   -41.792184    93.182792 
  399100    58.049914    4.4411611      2204118          147  0.007193656   -42.437111    94.953288 
  399200    59.749643    4.4804185      2204118          147  0.007193656   -42.828576    98.584679 
  399300    60.567262    4.4847926      2204118          147  0.007193656   -43.324964     100.0234 
  399400    60.072214    4.5576636      2204118          147  0.007193656    -43.01978    99.156923 
  399500    58.399461    4.7599124      2204118          147  0.007193656   -41.520424    96.697271 
  399600    59.051006    5.2055589      2204118          147  0.007193656   -39.065401    100.69434 
  399700    61.940348     5.676885      2204118          147  0.007193656   -37.213928    109.38421 
  399800    61.137269    5.7341217      2204118          147  0.007193656    -36.89291    107.80453 
  399900    58.895456    5.5450336      2204118          147  0.007193656   -37.753544    101.63805 
  400000    58.621055    5.4877121      2204118          147  0.007193656   -38.265747    100.47641 
  400100    63.274769    5.8266587      2204118          147  0.007193656   -37.587776    112.16862 
Loop time of 27.8528 on 1 procs for 400000 steps with 795 atoms

Performance: 310.203 ns/day, 0.077 hours/ns, 14361.228 timesteps/s
96.0% CPU use with 1 MPI tasks x no OpenMP threads

MPI task timing breakdown:
Section |  min time  |  avg time  |  max time  |%varavg| %total
---------------------------------------------------------------
Pair    | 14.666     | 14.666     | 14.666     |   0.0 | 52.66
Neigh   | 1.6636     | 1.6636     | 1.6636     |   0.0 |  5.97
Comm    | 0.98429    | 0.98429    | 0.98429    |   0.0 |  3.53
Output  | 2.009      | 2.009      | 2.009      |   0.0 |  7.21
Modify  | 7.7693     | 7.7693     | 7.7693     |   0.0 | 27.89
Other   |            | 0.7603     |            |       |  2.73

Nlocal:            795 ave         795 max         795 min
Histogram: 1 0 0 0 0 0 0 0 0 0
Nghost:            153 ave         153 max         153 min
Histogram: 1 0 0 0 0 0 0 0 0 0
Neighs:           1592 ave        1592 max        1592 min
Histogram: 1 0 0 0 0 0 0 0 0 0

Total # of neighbors = 1592
Ave neighs/atom = 2.0025157
Neighbor list builds = 4541
Dangerous builds = 5

write_data graphene_single_layer_LJ_795C_after_temp_60K.data
System init for write_data ...
  generated 0 of 0 mixed pair_coeff terms from geometric mixing rule
Total wall time: 0:00:28
