# System definition
read_data graphene_single_layer_x-45_y-45_795_C.data  ### MODIFY FILE NAME ###
Reading data file ...
  orthogonal box = (-1.4464652 -1.4423034 -1.42) to (47.285152 47.149102 1.42)
  8 by 8 by 1 MPI processor grid
  reading atoms ...
  795 atoms
  reading velocities ...
  795 velocities
  read_data CPU = 0.043 seconds
pair_style lj/cut 6
pair_coeff      1 1 0.066047 3.4

# Virtual force wall to keep the cylinder shape
#region myCylinder cylinder z 0. 0. 20.3 -22.079997 505.920003 units box
#fix wall all wall/region myCylinder lj93 1.0 1.0 2.5

# Minimization
timestep 0.25
thermo 100
thermo_style custom step temp press vol lx density pe etotal
dump 2 all custom 1000 graphene_single_layer_LJ_795C_after_temp_400K.lammpstrj id type x y z ### MODIFY FILE NAME ###
min_style cg
minimize 1.0e-6 1.0e-6 100 1000
WARNING: Using 'neigh_modify every 1 delay 0 check yes' setting during minimization (src/min.cpp:187)
Generated 0 of 0 mixed pair_coeff terms from geometric mixing rule
Neighbor list info ...
  update every 1 steps, delay 0 steps, check yes
  max neighbors/atom: 10000, page size: 100000
  master list distance cutoff = 6.4
  ghost atom cutoff = 6.4
  binsize = 3.2, bins = 16 16 1
  1 neighbor lists, perpetual/occasional/extra = 1 0 0
  (1) pair lj/cut, perpetual
      attributes: half, newton on
      pair build: half/bin/atomonly/newton
      stencil: half/bin/3d
      bin: standard
Per MPI rank memory allocation (min/avg/max) = 5.47 | 5.472 | 5.472 Mbytes
   Step          Temp          Press          Volume           Lx          Density         PotEng         TotEng    
         0   923            3.5764745e+08  6724.9433      48.731617      2.3577398      8739313.6      8741498.1    
       100   923            47390520       6724.9433      48.731617      2.3577398      1146833.4      1149017.9    
Loop time of 0.0268176 on 64 procs for 100 steps with 795 atoms

91.5% CPU use with 64 MPI tasks x 1 OpenMP threads

Minimization stats:
  Stopping criterion = max iterations
  Energy initial, next-to-last, final = 
      8739313.57439336   1156380.83320826   1146833.40532139
  Force two-norm initial, final = 757147.49 28301.772
  Force max component initial, final = 127132.22 7330.8006
  Final line search alpha, max atom move = 9.6526089e-06 0.070761352
  Iterations, force evaluations = 100 123

MPI task timing breakdown:
Section |  min time  |  avg time  |  max time  |%varavg| %total
---------------------------------------------------------------
Pair    | 0.0017124  | 0.0025758  | 0.0042599  |   0.9 |  9.60
Neigh   | 0.0011009  | 0.0015051  | 0.0019515  |   0.5 |  5.61
Comm    | 0.0090591  | 0.010205   | 0.011649   |   0.5 | 38.06
Output  | 7.0993e-05 | 7.5329e-05 | 9.611e-05  |   0.0 |  0.28
Modify  | 0          | 0          | 0          |   0.0 |  0.00
Other   |            | 0.01246    |            |       | 46.45

Nlocal:        12.4219 ave          15 max           9 min
Histogram: 1 3 0 11 0 17 19 0 11 2
Nghost:        579.656 ave         611 max         547 min
Histogram: 1 5 5 9 9 13 9 7 4 2
Neighs:        790.734 ave         969 max         597 min
Histogram: 3 2 10 1 15 7 13 5 7 1

Total # of neighbors = 50607
Ave neighs/atom = 63.656604
Neighbor list builds = 37
Dangerous builds = 0
#timestep 0.25
fix 1 all nvt temp 400.0 400.0 $(100.0*dt) ### MODIFY INITIAL TEMP, FINAL TEMP ###
fix 1 all nvt temp 400.0 400.0 25 
run 400000
Generated 0 of 0 mixed pair_coeff terms from geometric mixing rule
Per MPI rank memory allocation (min/avg/max) = 4.346 | 4.347 | 4.347 Mbytes
   Step          Temp          Press          Volume           Lx          Density         PotEng         TotEng    
       100   923            47390520       6724.9433      48.731617      2.3577398      1146833.4      1149017.9    
       200   10047.817      9819235.6      6724.9433      48.731617      2.3577398      227843.14      251623.94    
       300   2891.2813      8000614.8      6724.9433      48.731617      2.3577398      186447.99      193290.97    
       400   1420.9936      7505088.3      6724.9433      48.731617      2.3577398      174992.85      178356.01    
       500   757.94941      7298150.3      6724.9433      48.731617      2.3577398      170228.05      172021.94    
       600   587.19146      7195184.8      6724.9433      48.731617      2.3577398      167795.03      169184.78    
       700   454.36128      7134197.2      6724.9433      48.731617      2.3577398      166365.92      167441.29    
       800   395.31479      7096430.3      6724.9433      48.731617      2.3577398      165471.25      166406.86    
       900   401.41728      7063140.1      6724.9433      48.731617      2.3577398      164659.75      165609.81    
      1000   472.36731      7018036        6724.9433      48.731617      2.3577398      163540.9       164658.88    
      1100   379.33099      6987650.5      6724.9433      48.731617      2.3577398      162839.95      163737.74    
      1200   374.05873      6965428.2      6724.9433      48.731617      2.3577398      162303.36      163188.67    
      1300   375.33663      6942282.4      6724.9433      48.731617      2.3577398      161741.39      162629.72    
      1400   343.25007      6929374.5      6724.9433      48.731617      2.3577398      161440.71      162253.11    
      1500   380.30924      6919475.8      6724.9433      48.731617      2.3577398      161185.16      162085.26    
      1600   417.02862      6908728.1      6724.9433      48.731617      2.3577398      160911.2       161898.21    
      1700   388.21216      6900588.1      6724.9433      48.731617      2.3577398      160723.31      161642.11    
      1800   368.28687      6892374.1      6724.9433      48.731617      2.3577398      160532.95      161404.6     
      1900   328.26144      6891782.1      6724.9433      48.731617      2.3577398      160533.31      161310.23    
      2000   432.22244      6888638        6724.9433      48.731617      2.3577398      160415.57      161438.54    
      2100   476.76812      6886607.4      6724.9433      48.731617      2.3577398      160350.61      161479.01    
      2200   457.65121      6873019.8      6724.9433      48.731617      2.3577398      160027.09      161110.24    
      2300   410.18725      6852729        6724.9433      48.731617      2.3577398      159554.65      160525.46    
      2400   357.10912      6839125.6      6724.9433      48.731617      2.3577398      159245.79      160090.98    
      2500   337.46912      6832041        6724.9433      48.731617      2.3577398      159081.61      159880.32    
      2600   472.61128      6820811.4      6724.9433      48.731617      2.3577398      158756.54      159875.1     
      2700   441.12921      6813209.3      6724.9433      48.731617      2.3577398      158586.17      159630.22    
      2800   409.03862      6797116.8      6724.9433      48.731617      2.3577398      158208.12      159176.22    
      2900   364.31256      6782919.9      6724.9433      48.731617      2.3577398      157880.13      158742.37    
      3000   318.19279      6778575.9      6724.9433      48.731617      2.3577398      157792.85      158545.94    
      3100   309.92606      6783549.2      6724.9433      48.731617      2.3577398      157915.59      158649.11    
      3200   408.2554       6793084.7      6724.9433      48.731617      2.3577398      158110.39      159076.63    
      3300   492.83051      6803040.1      6724.9433      48.731617      2.3577398      158318.26      159484.67    
      3400   485.61201      6801120.7      6724.9433      48.731617      2.3577398      158273.74      159423.07    
      3500   398.21501      6789674.7      6724.9433      48.731617      2.3577398      158030.33      158972.81    
      3600   323.79509      6781253.5      6724.9433      48.731617      2.3577398      157854.41      158620.76    
      3700   343.57591      6776652.5      6724.9433      48.731617      2.3577398      157736.68      158549.84    
      3800   399.50081      6778538.5      6724.9433      48.731617      2.3577398      157760.42      158705.94    
      3900   461.41963      6783141        6724.9433      48.731617      2.3577398      157845.76      158937.83    
      4000   474.84538      6779246        6724.9433      48.731617      2.3577398      157747.02      158870.87    
      4100   385.49448      6769632.7      6724.9433      48.731617      2.3577398      157548.66      158461.03    
      4200   335.92292      6761165.3      6724.9433      48.731617      2.3577398      157363.44      158158.49    
      4300   338.87848      6759673        6724.9433      48.731617      2.3577398      157325.51      158127.55    
      4400   376.93967      6764838.9      6724.9433      48.731617      2.3577398      157435.45      158327.58    
      4500   444.79915      6771140.1      6724.9433      48.731617      2.3577398      157560.88      158613.62    
      4600   451.69909      6772717.9      6724.9433      48.731617      2.3577398      157598.11      158667.17    
      4700   396.00893      6769893        6724.9433      48.731617      2.3577398      157550.77      158488.03    
      4800   385.65274      6763803.4      6724.9433      48.731617      2.3577398      157407.47      158320.22    
      4900   374.25774      6761219        6724.9433      48.731617      2.3577398      157348.34      158234.12    
      5000   371.62677      6763322.3      6724.9433      48.731617      2.3577398      157400.6       158280.16    
      5100   427.73571      6764855.6      6724.9433      48.731617      2.3577398      157416.28      158428.63    
      5200   429.31632      6766891.5      6724.9433      48.731617      2.3577398      157464.61      158480.7     
      5300   400.64305      6766041.2      6724.9433      48.731617      2.3577398      157455.95      158404.18    
      5400   382.155        6763476.8      6724.9433      48.731617      2.3577398      157400.72      158305.19    
      5500   396.70596      6759658.3      6724.9433      48.731617      2.3577398      157302.46      158241.37    
      5600   397.22229      6758848.3      6724.9433      48.731617      2.3577398      157283.58      158223.71    
      5700   386.65011      6759535.5      6724.9433      48.731617      2.3577398      157303.84      158218.94    
      5800   394.37275      6760439.3      6724.9433      48.731617      2.3577398      157324.41      158257.79    
      5900   432.16372      6759833.3      6724.9433      48.731617      2.3577398      157293.86      158316.68    
      6000   404.11261      6761583.4      6724.9433      48.731617      2.3577398      157346.92      158303.36    
      6100   396.67521      6761724.7      6724.9433      48.731617      2.3577398      157355.06      158293.9     
      6200   424.70168      6758290.5      6724.9433      48.731617      2.3577398      157258.24      158263.4     
      6300   364.76713      6757643        6724.9433      48.731617      2.3577398      157266.74      158130.05    
      6400   387.82692      6752674.5      6724.9433      48.731617      2.3577398      157136.76      158054.65    
      6500   375.68685      6754203.4      6724.9433      48.731617      2.3577398      157180.49      158069.65    
      6600   394.6306       6757235.6      6724.9433      48.731617      2.3577398      157244.97      158178.97    
      6700   414.16666      6760402.3      6724.9433      48.731617      2.3577398      157315.63      158295.86    
      6800   429.42432      6760175.7      6724.9433      48.731617      2.3577398      157303.73      158320.07    
      6900   395.98114      6758935.2      6724.9433      48.731617      2.3577398      157286.07      158223.27    
      7000   387.06939      6755495.1      6724.9433      48.731617      2.3577398      157207.08      158123.18    
      7100   373.37756      6754082.3      6724.9433      48.731617      2.3577398      157177.09      158060.78    
      7200   373.48937      6755537        6724.9433      48.731617      2.3577398      157212.43      158096.39    
      7300   410.69251      6758464.3      6724.9433      48.731617      2.3577398      157269.33      158241.34    
      7400   438.45081      6760207.7      6724.9433      48.731617      2.3577398      157300.66      158338.37    
      7500   425.08353      6759500        6724.9433      48.731617      2.3577398      157288.5       158294.57    
      7600   379.33179      6758260        6724.9433      48.731617      2.3577398      157275.52      158173.31    
      7700   366.18451      6755064.3      6724.9433      48.731617      2.3577398      157204.38      158071.05    
      7800   377.35599      6753755.4      6724.9433      48.731617      2.3577398      157167.92      158061.03    
      7900   384.99025      6755954.7      6724.9433      48.731617      2.3577398      157218.25      158129.43    
      8000   401.52014      6758712.5      6724.9433      48.731617      2.3577398      157279.07      158229.37    
      8100   433.1846       6759464.3      6724.9433      48.731617      2.3577398      157284.99      158310.24    
      8200   483.65221      6753342.4      6724.9433      48.731617      2.3577398      157116.18      158260.87    
      8300   425.58205      6739839.9      6724.9433      48.731617      2.3577398      156810.91      157818.16    
      8400   362.69967      6725743.3      6724.9433      48.731617      2.3577398      156493.66      157352.08    
      8500   291.3312       6722056.2      6724.9433      48.731617      2.3577398      156433.17      157122.69    
      8600   337.98702      6723402.4      6724.9433      48.731617      2.3577398      156446.78      157246.71    
      8700   417.52193      6732878.9      6724.9433      48.731617      2.3577398      156646.76      157634.93    
      8800   468.91255      6742390.8      6724.9433      48.731617      2.3577398      156857.27      157967.07    
      8900   470.88797      6740099.1      6724.9433      48.731617      2.3577398      156800.17      157914.65    
      9000   398.81456      6731378.6      6724.9433      48.731617      2.3577398      156616.48      157560.38    
      9100   335.59507      6725237.8      6724.9433      48.731617      2.3577398      156493.18      157287.45    
      9200   355.51566      6722207.9      6724.9433      48.731617      2.3577398      156411.42      157252.84    
      9300   372.46413      6727856.2      6724.9433      48.731617      2.3577398      156540.39      157421.93    
      9400   452.68449      6733009        6724.9433      48.731617      2.3577398      156635.08      157706.48    
      9500   471.16525      6737766.8      6724.9433      48.731617      2.3577398      156744.57      157859.71    
      9600   434.59738      6736615.5      6724.9433      48.731617      2.3577398      156729.76      157758.34    
      9700   403.42814      6730019        6724.9433      48.731617      2.3577398      156581.72      157536.53    
      9800   368.58733      6725007.1      6724.9433      48.731617      2.3577398      156474.39      157346.75    
      9900   363.11138      6723545.5      6724.9433      48.731617      2.3577398      156440.21      157299.61    
     10000   371.46261      6727904        6724.9433      48.731617      2.3577398      156544.07      157423.23    
     10100   417.80219      6734346.5      6724.9433      48.731617      2.3577398      156682.25      157671.09    
     10200   443.58576      6738972.1      6724.9433      48.731617      2.3577398      156783.38      157833.24    
     10300   427.03599      6738242.6      6724.9433      48.731617      2.3577398      156773.89      157784.58    
     10400   396.40592      6730876.9      6724.9433      48.731617      2.3577398      156605.4       157543.6     
     10500   361.65828      6724464.9      6724.9433      48.731617      2.3577398      156464.24      157320.2     
     10600   347.25081      6723469.3      6724.9433      48.731617      2.3577398      156444.8       157266.66    
     10700   360.16408      6729132.1      6724.9433      48.731617      2.3577398      156576.77      157429.2     
     10800   407.53382      6737219.1      6724.9433      48.731617      2.3577398      156755.55      157720.09    
     10900   477.28126      6739001.6      6724.9433      48.731617      2.3577398      156771.21      157900.82    
     11000   451.50412      6734996        6724.9433      48.731617      2.3577398      156684.21      157752.81    
     11100   393.15986      6727012.3      6724.9433      48.731617      2.3577398      156512.13      157442.64    
     11200   338.4478       6723444.5      6724.9433      48.731617      2.3577398      156447.26      157248.29    
     11300   348.09741      6724821.6      6724.9433      48.731617      2.3577398      156478.03      157301.89    
     11400   398.5875       6731680.3      6724.9433      48.731617      2.3577398      156624.93      157568.29    
     11500   470.72276      6737541.3      6724.9433      48.731617      2.3577398      156738.42      157852.51    
     11600   455.76749      6739140.3      6724.9433      48.731617      2.3577398      156783.3       157862       
     11700   407.92348      6732212        6724.9433      48.731617      2.3577398      156634.57      157600.03    
     11800   349.85881      6725632.7      6724.9433      48.731617      2.3577398      156498.44      157326.47    
     11900   354.15052      6722888.4      6724.9433      48.731617      2.3577398      156428.07      157266.26    
     12000   367.14161      6728487.3      6724.9433      48.731617      2.3577398      156558.91      157427.85    
     12100   442.96637      6734570.7      6724.9433      48.731617      2.3577398      156677.72      157726.12    
     12200   449.87006      6739681.7      6724.9433      48.731617      2.3577398      156798.95      157863.69    
     12300   434.96059      6734437.1      6724.9433      48.731617      2.3577398      156677.71      157707.16    
     12400   375.18243      6728605.8      6724.9433      48.731617      2.3577398      156558.46      157446.42    
     12500   361.30272      6724023.5      6724.9433      48.731617      2.3577398      156453.45      157308.57    
     12600   368.34169      6725763.5      6724.9433      48.731617      2.3577398      156492.18      157363.96    
     12700   397.64381      6732582.2      6724.9433      48.731617      2.3577398      156647.45      157588.58    
     12800   460.76497      6735999.1      6724.9433      48.731617      2.3577398      156704.54      157795.06    
     12900   442.4015       6736270.5      6724.9433      48.731617      2.3577398      156718.89      157765.95    
     13000   388.33498      6731867.1      6724.9433      48.731617      2.3577398      156633.29      157552.39    
     13100   362.44214      6726933.6      6724.9433      48.731617      2.3577398      156523.48      157381.3     
     13200   357.1725       6726750.8      6724.9433      48.731617      2.3577398      156520.44      157365.78    
     13300   387.50231      6730041        6724.9433      48.731617      2.3577398      156588.17      157505.3     
     13400   427.40717      6733696.9      6724.9433      48.731617      2.3577398      156661.81      157673.39    
     13500   436.99118      6735309.4      6724.9433      48.731617      2.3577398      156696.77      157731.02    
     13600   413.54179      6733012.9      6724.9433      48.731617      2.3577398      156650.93      157629.68    
     13700   383.97192      6729526.8      6724.9433      48.731617      2.3577398      156578.47      157487.24    
     13800   373.2878       6728067.5      6724.9433      48.731617      2.3577398      156546.31      157429.79    
     13900   397.6073       6728436.3      6724.9433      48.731617      2.3577398      156545.65      157486.69    
     14000   424.73543      6730029        6724.9433      48.731617      2.3577398      156574.87      157580.12    
     14100   407.14196      6732980.9      6724.9433      48.731617      2.3577398      156652.53      157616.14    
     14200   409.49063      6732367.1      6724.9433      48.731617      2.3577398      156636.91      157606.08    
     14300   401.79358      6731099.3      6724.9433      48.731617      2.3577398      156609.38      157560.33    
     14400   390.08608      6730694.9      6724.9433      48.731617      2.3577398      156604.43      157527.67    
     14500   401.4034       6729186.5      6724.9433      48.731617      2.3577398      156562.61      157512.64    
     14600   387.25054      6730435.9      6724.9433      48.731617      2.3577398      156599.04      157515.57    
     14700   399.19595      6730204.1      6724.9433      48.731617      2.3577398      156587.04      157531.84    
     14800   399.2525       6731533.6      6724.9433      48.731617      2.3577398      156620.23      157565.17    
     14900   403.66053      6732975.3      6724.9433      48.731617      2.3577398      156654.35      157609.72    
     15000   419.73056      6732260        6724.9433      48.731617      2.3577398      156629.8       157623.2     
     15100   404.04103      6731304.1      6724.9433      48.731617      2.3577398      156613.09      157569.36    
     15200   398.2662       6728397.4      6724.9433      48.731617      2.3577398      156544.32      157486.92    
     15300   369.25528      6728958.9      6724.9433      48.731617      2.3577398      156569.39      157443.33    
     15400   389.43252      6729608.8      6724.9433      48.731617      2.3577398      156578.39      157500.09    
     15500   423.12698      6731630.5      6724.9433      48.731617      2.3577398      156613.89      157615.33    
     15600   434.58982      6733367.6      6724.9433      48.731617      2.3577398      156652.01      157680.58    
     15700   422.28959      6732187.3      6724.9433      48.731617      2.3577398      156627.36      157626.82    
     15800   384.5892       6730064.7      6724.9433      48.731617      2.3577398      156589.68      157499.91    
     15900   365.22364      6728237.7      6724.9433      48.731617      2.3577398      156553.78      157418.18    
     16000   383.78268      6728322.6      6724.9433      48.731617      2.3577398      156547.84      157456.17    
     16100   415.82569      6730923        6724.9433      48.731617      2.3577398      156599.52      157583.68    
     16200   434.71414      6733583.9      6724.9433      48.731617      2.3577398      156657.01      157685.88    
     16300   419.88971      6733675.4      6724.9433      48.731617      2.3577398      156666.16      157659.94    
     16400   393.16326      6730648        6724.9433      48.731617      2.3577398      156601.28      157531.8     
     16500   368.70261      6728563.5      6724.9433      48.731617      2.3577398      156560.53      157433.16    
     16600   391.65727      6727021.7      6724.9433      48.731617      2.3577398      156514.59      157441.55    
     16700   396.25872      6731095.7      6724.9433      48.731617      2.3577398      156611.81      157549.66    
     16800   425.96949      6733500.8      6724.9433      48.731617      2.3577398      156658.03      157666.2     
     16900   415.17421      6733971.6      6724.9433      48.731617      2.3577398      156673.17      157655.79    
     17000   379.08768      6732145.4      6724.9433      48.731617      2.3577398      156643.48      157540.69    
     17100   374.27491      6729240.2      6724.9433      48.731617      2.3577398      156574.84      157460.66    
     17200   382.74244      6729375.1      6724.9433      48.731617      2.3577398      156574.62      157480.48    
     17300   399.20475      6731015.1      6724.9433      48.731617      2.3577398      156607.37      157552.2     
     17400   414.48261      6732251.5      6724.9433      48.731617      2.3577398      156631.2       157612.18    
     17500   414.60752      6732132.9      6724.9433      48.731617      2.3577398      156629.33      157610.61    
     17600   394.12601      6731288.2      6724.9433      48.731617      2.3577398      156616.95      157549.75    
     17700   398.04172      6728876.8      6724.9433      48.731617      2.3577398      156556.91      157498.98    
     17800   377.17664      6731291.7      6724.9433      48.731617      2.3577398      156623.7       157516.39    
     17900   411.63679      6730871.9      6724.9433      48.731617      2.3577398      156599.28      157573.52    
     18000   408.79512      6731469.3      6724.9433      48.731617      2.3577398      156615.87      157583.39    
     18100   390.23805      6731609.4      6724.9433      48.731617      2.3577398      156626.52      157550.12    
     18200   386.83461      6730833.2      6724.9433      48.731617      2.3577398      156608.7       157524.25    
     18300   391.2953       6730796.3      6724.9433      48.731617      2.3577398      156605.6       157531.7     
     18400   405.56268      6731205.3      6724.9433      48.731617      2.3577398      156610.29      157570.16    
     18500   407.20566      6732010.8      6724.9433      48.731617      2.3577398      156629.45      157593.21    
     18600   428.22168      6729308.4      6724.9433      48.731617      2.3577398      156554.92      157568.42    
     18700   386.62632      6730155.1      6724.9433      48.731617      2.3577398      156592.21      157507.27    
     18800   389.77099      6729447.8      6724.9433      48.731617      2.3577398      156572.97      157495.46    
     18900   397.8512       6730621        6724.9433      48.731617      2.3577398      156599.97      157541.59    
     19000   402.30009      6732843        6724.9433      48.731617      2.3577398      156650.98      157603.13    
     19100   431.88882      6731164.6      6724.9433      48.731617      2.3577398      156597.92      157620.1     
     19200   411.29705      6730231.4      6724.9433      48.731617      2.3577398      156584.46      157557.9     
     19300   381.88415      6730018.1      6724.9433      48.731617      2.3577398      156591.02      157494.85    
     19400   377.32659      6730076        6724.9433      48.731617      2.3577398      156593.34      157486.38    
     19500   389.72014      6731208.7      6724.9433      48.731617      2.3577398      156616.25      157538.62    
     19600   424.8966       6731101.3      6724.9433      48.731617      2.3577398      156599.53      157605.16    
     19700   419.0038       6732085        6724.9433      48.731617      2.3577398      156626.71      157618.39    
     19800   399.58359      6731408.5      6724.9433      48.731617      2.3577398      156616.79      157562.51    
     19900   397.53711      6728931.5      6724.9433      48.731617      2.3577398      156558.03      157498.9     
     20000   387.8908       6729210        6724.9433      48.731617      2.3577398      156568.34      157486.39    
     20100   397.91041      6731188.8      6724.9433      48.731617      2.3577398      156613.62      157555.38    
     20200   395.70907      6733496.6      6724.9433      48.731617      2.3577398      156668.91      157605.46    
     20300   425.09468      6730368.1      6724.9433      48.731617      2.3577398      156582.64      157588.74    
     20400   385.00514      6731318.9      6724.9433      48.731617      2.3577398      156621.02      157532.24    
     20500   394.09622      6729817.2      6724.9433      48.731617      2.3577398      156580.84      157513.57    
     20600   390.27259      6731090.9      6724.9433      48.731617      2.3577398      156613.14      157536.82    
     20700   393.00764      6732450.1      6724.9433      48.731617      2.3577398      156644.66      157574.81    
     20800   422.18106      6730575        6724.9433      48.731617      2.3577398      156588.63      157587.83    
     20900   391.99483      6731310.6      6724.9433      48.731617      2.3577398      156618.23      157545.99    
     21000   382.60118      6730220        6724.9433      48.731617      2.3577398      156595.29      157500.82    
     21100   393.9327       6729934.4      6724.9433      48.731617      2.3577398      156583.94      157516.29    
     21200   420.43372      6730803.8      6724.9433      48.731617      2.3577398      156594.76      157589.83    
     21300   417.98886      6732512.3      6724.9433      48.731617      2.3577398      156636.23      157625.51    
     21400   405.6077       6731722.9      6724.9433      48.731617      2.3577398      156623.08      157583.05    
     21500   397.62299      6728732.7      6724.9433      48.731617      2.3577398      156553.54      157494.61    
     21600   388.29235      6727486.7      6724.9433      48.731617      2.3577398      156526.74      157445.73    
     21700   382.27314      6730371.5      6724.9433      48.731617      2.3577398      156599.13      157503.88    
     21800   396.18592      6734721.2      6724.9433      48.731617      2.3577398      156699.47      157637.15    
     21900   438.78649      6733559        6724.9433      48.731617      2.3577398      156654.82      157693.33    
     22000   400.69296      6732829        6724.9433      48.731617      2.3577398      156651.99      157600.33    
     22100   380.16848      6728524.1      6724.9433      48.731617      2.3577398      156555.64      157455.41    
     22200   372.00651      6726554.6      6724.9433      48.731617      2.3577398      156511.41      157391.86    
     22300   391.29574      6728367.1      6724.9433      48.731617      2.3577398      156546.8       157472.9     
     22400   416.10521      6733649.7      6724.9433      48.731617      2.3577398      156665.63      157650.45    
     22500   456.92574      6734423.8      6724.9433      48.731617      2.3577398      156668.32      157749.75    
     22600   425.22046      6732503.2      6724.9433      48.731617      2.3577398      156633.12      157639.51    
     22700   376.77741      6728401.5      6724.9433      48.731617      2.3577398      156553.76      157445.51    
     22800   350.3049       6726690.3      6724.9433      48.731617      2.3577398      156522.17      157351.26    
     22900   368.2449       6728664.6      6724.9433      48.731617      2.3577398      156562.77      157434.32    
     23000   416.17125      6733119.5      6724.9433      48.731617      2.3577398      156652.45      157637.42    
     23100   457.96937      6735522.8      6724.9433      48.731617      2.3577398      156695.18      157779.09    
     23200   450.82188      6732369.4      6724.9433      48.731617      2.3577398      156620.13      157687.12    
     23300   388.95879      6728168        6724.9433      48.731617      2.3577398      156543.24      157463.82    
     23400   353.47998      6725861.4      6724.9433      48.731617      2.3577398      156500.5       157337.11    
     23500   363.63615      6727393.7      6724.9433      48.731617      2.3577398      156533.91      157394.55    
     23600   419.94363      6731333.1      6724.9433      48.731617      2.3577398      156607.42      157601.33    
     23700   463.4607       6735387.6      6724.9433      48.731617      2.3577398      156688.64      157785.54    
     23800   436.70797      6734994.5      6724.9433      48.731617      2.3577398      156690.5       157724.08    
     23900   392.64431      6729287.9      6724.9433      48.731617      2.3577398      156567.81      157497.11    
     24000   352.51282      6726269.4      6724.9433      48.731617      2.3577398      156511.13      157345.44    
     24100   360.87791      6726608.6      6724.9433      48.731617      2.3577398      156515.87      157369.98    
     24200   409.72845      6730276.1      6724.9433      48.731617      2.3577398      156587.95      157557.68    
     24300   476.01296      6733039.8      6724.9433      48.731617      2.3577398      156627.73      157754.34    
     24400   440.66009      6735766.1      6724.9433      48.731617      2.3577398      156708.09      157751.03    
     24500   400.9413       6731081.8      6724.9433      48.731617      2.3577398      156608.79      157557.72    
     24600   371.26385      6725987.8      6724.9433      48.731617      2.3577398      156496         157374.69    
     24700   357.14435      6726374.3      6724.9433      48.731617      2.3577398      156512.13      157357.41    
     24800   393.07573      6729733.8      6724.9433      48.731617      2.3577398      156579.47      157509.79    
     24900   425.37374      6735009.4      6724.9433      48.731617      2.3577398      156693.63      157700.39    
     25000   427.89146      6736499.6      6724.9433      48.731617      2.3577398      156729.87      157742.58    
     25100   400.47993      6733277.8      6724.9433      48.731617      2.3577398      156662.58      157610.42    
     25200   383.04598      6727682        6724.9433      48.731617      2.3577398      156534.56      157441.14    
     25300   373.78302      6725849.8      6724.9433      48.731617      2.3577398      156492.69      157377.35    
     25400   383.9708       6728505.4      6724.9433      48.731617      2.3577398      156553.95      157462.72    
     25500   417.55717      6732665.4      6724.9433      48.731617      2.3577398      156640.76      157629.02    
     25600   437.57558      6734737.5      6724.9433      48.731617      2.3577398      156682.71      157718.35    
     25700   420.2049       6733082.9      6724.9433      48.731617      2.3577398      156650.43      157644.96    
     25800   383.33338      6730362.7      6724.9433      48.731617      2.3577398      156599.04      157506.3     
     25900   378.43729      6727377        6724.9433      48.731617      2.3577398      156528.1       157423.77    
     26000   374.09916      6728585        6724.9433      48.731617      2.3577398      156558.69      157444.09    
     26100   403.33916      6730607.6      6724.9433      48.731617      2.3577398      156596.73      157551.34    
     26200   426.89055      6733251.6      6724.9433      48.731617      2.3577398      156651.66      157662       
     26300   408.99789      6734777.7      6724.9433      48.731617      2.3577398      156694.56      157662.56    
     26400   402.06349      6731730.5      6724.9433      48.731617      2.3577398      156624.58      157576.17    
     26500   393.76514      6728629.7      6724.9433      48.731617      2.3577398      156551.91      157483.86    
     26600   383.8372       6727921.2      6724.9433      48.731617      2.3577398      156539.29      157447.74    
     26700   381.10916      6729828.9      6724.9433      48.731617      2.3577398      156587.21      157489.2     
     26800   400.70255      6731871.6      6724.9433      48.731617      2.3577398      156629.16      157577.53    
     26900   419.46047      6733642.1      6724.9433      48.731617      2.3577398      156663.84      157656.61    
     27000   415.57891      6733706.9      6724.9433      48.731617      2.3577398      156667.02      157650.6     
     27100   403.96846      6730757.5      6724.9433      48.731617      2.3577398      156600.81      157556.91    
     27200   389.12063      6728266.4      6724.9433      48.731617      2.3577398      156544.6       157465.56    
     27300   372.82476      6728290.4      6724.9433      48.731617      2.3577398      156552.52      157434.91    
     27400   379.53902      6730368.5      6724.9433      48.731617      2.3577398      156600.27      157498.55    
     27500   390.32552      6734486.2      6724.9433      48.731617      2.3577398      156695.33      157619.13    
     27600   434.89832      6733806.4      6724.9433      48.731617      2.3577398      156662.3       157691.6     
     27700   421.31981      6732773.9      6724.9433      48.731617      2.3577398      156642.77      157639.93    
     27800   388.49891      6729942.3      6724.9433      48.731617      2.3577398      156587.02      157506.51    
     27900   374.72942      6727321.7      6724.9433      48.731617      2.3577398      156528.42      157415.32    
     28000   375.85665      6727886.4      6724.9433      48.731617      2.3577398      156541.3       157430.86    
     28100   400.12437      6731116.4      6724.9433      48.731617      2.3577398      156610.62      157557.62    
     28200   428.08769      6734573        6724.9433      48.731617      2.3577398      156681.8       157694.98    
     28300   426.98953      6734994.6      6724.9433      48.731617      2.3577398      156693.3       157703.88    
     28400   391.56664      6732190.6      6724.9433      48.731617      2.3577398      156639.43      157566.18    
     28500   366.27097      6728132.8      6724.9433      48.731617      2.3577398      156550.01      157416.88    
     28600   362.73369      6727036.8      6724.9433      48.731617      2.3577398      156525.54      157384.04    
     28700   384.78559      6730105.9      6724.9433      48.731617      2.3577398      156591.01      157501.71    
     28800   407.74155      6735438.4      6724.9433      48.731617      2.3577398      156711.69      157676.72    
     28900   435.20902      6735604.1      6724.9433      48.731617      2.3577398      156705.55      157735.58    
     29000   415.23657      6732377        6724.9433      48.731617      2.3577398      156635.05      157617.82    
     29100   372.48264      6728763.2      6724.9433      48.731617      2.3577398      156563.48      157445.05    
     29200   353.40485      6727060.5      6724.9433      48.731617      2.3577398      156530.24      157366.66    
     29300   377.63692      6728396.1      6724.9433      48.731617      2.3577398      156552.7       157446.48    
     29400   433.38086      6731865.3      6724.9433      48.731617      2.3577398      156614.93      157640.64    
     29500   430.67826      6736637.5      6724.9433      48.731617      2.3577398      156733.01      157752.33    
     29600   418.4338       6733900.6      6724.9433      48.731617      2.3577398      156670.9       157661.24    
     29700   389.28735      6728485        6724.9433      48.731617      2.3577398      156550.88      157472.23    
     29800   370.69929      6725667.3      6724.9433      48.731617      2.3577398      156490.01      157367.37    
     29900   368.95406      6728066.5      6724.9433      48.731617      2.3577398      156548.09      157421.32    
     30000   418.06419      6731206        6724.9433      48.731617      2.3577398      156606.13      157595.59    
     30100   443.18065      6735063.1      6724.9433      48.731617      2.3577398      156688.62      157737.52    
     30200   429.3033       6734478.4      6724.9433      48.731617      2.3577398      156680.46      157696.52    
     30300   378.6585       6731259.2      6724.9433      48.731617      2.3577398      156622.81      157519       
     30400   353.61516      6727754.8      6724.9433      48.731617      2.3577398      156547.03      157383.95    
     30500   378.44533      6726617.9      6724.9433      48.731617      2.3577398      156508.69      157404.38    
     30600   401.88144      6730923        6724.9433      48.731617      2.3577398      156604.62      157555.78    
     30700   439.02127      6734194        6724.9433      48.731617      2.3577398      156669.72      157708.78    
     30800   432.26961      6734405.3      6724.9433      48.731617      2.3577398      156677.66      157700.74    
     30900   408.13432      6730188.3      6724.9433      48.731617      2.3577398      156584.65      157550.61    
     31000   364.1739       6728248.2      6724.9433      48.731617      2.3577398      156553.68      157415.59    
     31100   355.52911      6728631        6724.9433      48.731617      2.3577398      156567.99      157409.44    
     31200   400.3667       6730135.2      6724.9433      48.731617      2.3577398      156586.4       157533.97    
     31300   419.86228      6734471.7      6724.9433      48.731617      2.3577398      156684.26      157677.98    
     31400   421.23349      6734662.2      6724.9433      48.731617      2.3577398      156688.23      157685.19    
     31500   389.12691      6732307.2      6724.9433      48.731617      2.3577398      156642.85      157563.83    
     31600   373.51878      6728791.4      6724.9433      48.731617      2.3577398      156564.57      157448.6     
     31700   376.02171      6727786.5      6724.9433      48.731617      2.3577398      156540.2       157430.15    
     31800   404.98184      6729400.9      6724.9433      48.731617      2.3577398      156565.86      157524.36    
     31900   412.27901      6733708.8      6724.9433      48.731617      2.3577398      156668.82      157644.58    
     32000   416.7067       6734438.5      6724.9433      48.731617      2.3577398      156684.58      157670.82    
     32100   416.17499      6730721.4      6724.9433      48.731617      2.3577398      156594.18      157579.16    
     32200   380.97842      6729171.3      6724.9433      48.731617      2.3577398      156570.32      157472.01    
     32300   387.49425      6727591.2      6724.9433      48.731617      2.3577398      156528.92      157446.03    
     32400   398.86035      6729648.1      6724.9433      48.731617      2.3577398      156574.5       157518.51    
     32500   418.58643      6732137.7      6724.9433      48.731617      2.3577398      156627.51      157618.21    
     32600   413.1045       6733620.2      6724.9433      48.731617      2.3577398      156665.12      157642.84    
     32700   397.73992      6732224.2      6724.9433      48.731617      2.3577398      156637.94      157579.29    
     32800   383.48688      6730137.6      6724.9433      48.731617      2.3577398      156592.17      157499.79    
     32900   386.22849      6729052.9      6724.9433      48.731617      2.3577398      156565.77      157479.88    
     33000   395.09586      6730125.4      6724.9433      48.731617      2.3577398      156588.42      157523.51    
     33100   422.94742      6730589.7      6724.9433      48.731617      2.3577398      156588.61      157589.63    
     33200   410.1848       6732575.1      6724.9433      48.731617      2.3577398      156641.36      157612.17    
     33300   411.98504      6730939.6      6724.9433      48.731617      2.3577398      156601.54      157576.61    
     33400   391.68206      6730438.1      6724.9433      48.731617      2.3577398      156596.46      157523.48    
     33500   378.53579      6730644.2      6724.9433      48.731617      2.3577398      156606.63      157502.53    
     33600   382.7811       6731212.1      6724.9433      48.731617      2.3577398      156619.24      157525.19    
     33700   399.66191      6731701.7      6724.9433      48.731617      2.3577398      156623.78      157569.69    
     33800   406.27045      6731981.1      6724.9433      48.731617      2.3577398      156629.06      157590.61    
     33900   409.67443      6730955.5      6724.9433      48.731617      2.3577398      156603.41      157573.01    
     34000   394.79281      6730811.4      6724.9433      48.731617      2.3577398      156605.03      157539.41    
     34100   393.51763      6730506.9      6724.9433      48.731617      2.3577398      156597.88      157529.24    
     34200   401.04459      6730164.5      6724.9433      48.731617      2.3577398      156586.64      157535.82    
     34300   391.6912       6731372.5      6724.9433      48.731617      2.3577398      156619.22      157546.26    
     34400   405.20266      6730794.6      6724.9433      48.731617      2.3577398      156601.02      157560.04    
     34500   405.45521      6731068.4      6724.9433      48.731617      2.3577398      156607.08      157566.7     
     34600   398.80338      6731497.2      6724.9433      48.731617      2.3577398      156620.08      157563.95    
     34700   400.97116      6730926.2      6724.9433      48.731617      2.3577398      156604.5       157553.51    
     34800   401.54813      6730483.9      6724.9433      48.731617      2.3577398      156594.25      157544.62    
     34900   401.50131      6729939        6724.9433      48.731617      2.3577398      156581.2       157531.46    
     35000   387.41008      6730896        6724.9433      48.731617      2.3577398      156610.69      157527.6     
     35100   380.4734       6732634.9      6724.9433      48.731617      2.3577398      156654.74      157555.23    
     35200   429.87563      6729981.9      6724.9433      48.731617      2.3577398      156571.55      157588.96    
     35300   404.233        6731772.4      6724.9433      48.731617      2.3577398      156624.66      157581.38    
     35400   393.02582      6731136.2      6724.9433      48.731617      2.3577398      156613.36      157543.56    
     35500   400.54535      6729158.5      6724.9433      48.731617      2.3577398      156562.45      157510.44    
     35600   402.09345      6728996.8      6724.9433      48.731617      2.3577398      156558.34      157510       
     35700   404.01847      6730702.2      6724.9433      48.731617      2.3577398      156599.11      157555.32    
     35800   397.64509      6733250.2      6724.9433      48.731617      2.3577398      156662.45      157603.58    
     35900   417.94371      6731442.4      6724.9433      48.731617      2.3577398      156611.42      157600.6     
     36000   407.43452      6730097        6724.9433      48.731617      2.3577398      156581.7       157546       
     36100   396.54841      6728803.8      6724.9433      48.731617      2.3577398      156556.28      157494.81    
     36200   374.95876      6730678        6724.9433      48.731617      2.3577398      156609.28      157496.72    
     36300   409.60446      6730455.3      6724.9433      48.731617      2.3577398      156590.65      157560.09    
     36400   419.98493      6731997.7      6724.9433      48.731617      2.3577398      156623.58      157617.59    
     36500   422.14491      6731335.8      6724.9433      48.731617      2.3577398      156607.23      157606.34    
     36600   404.77438      6729968.1      6724.9433      48.731617      2.3577398      156580.19      157538.19    
     36700   389.10463      6729286.4      6724.9433      48.731617      2.3577398      156570.02      157490.94    
     36800   388.40077      6729459.8      6724.9433      48.731617      2.3577398      156574.29      157493.55    
     36900   398.35506      6731095.5      6724.9433      48.731617      2.3577398      156610.48      157553.29    
     37000   405.58754      6733223.4      6724.9433      48.731617      2.3577398      156659.55      157619.48    
     37100   409.23485      6732957.7      6724.9433      48.731617      2.3577398      156650.41      157618.98    
     37200   393.47292      6731233.8      6724.9433      48.731617      2.3577398      156616.42      157547.67    
     37300   377.51803      6730047.4      6724.9433      48.731617      2.3577398      156592.06      157485.55    
     37400   386.75597      6729103        6724.9433      48.731617      2.3577398      156566.77      157482.13    
     37500   396.14556      6730985.6      6724.9433      48.731617      2.3577398      156608.59      157546.17    
     37600   405.76974      6733016.8      6724.9433      48.731617      2.3577398      156654.11      157614.47    
     37700   408.19434      6733025.9      6724.9433      48.731617      2.3577398      156653.32      157619.42    
     37800   401.13141      6731088.9      6724.9433      48.731617      2.3577398      156609.64      157559.03    
     37900   384.42761      6729953.2      6724.9433      48.731617      2.3577398      156587.54      157497.39    
     38000   391.21792      6729000.8      6724.9433      48.731617      2.3577398      156561.84      157487.76    
     38100   401.34106      6730110.7      6724.9433      48.731617      2.3577398      156585.74      157535.62    
     38200   419.47147      6731330.9      6724.9433      48.731617      2.3577398      156608.36      157601.15    
     38300   429.51825      6731192.3      6724.9433      48.731617      2.3577398      156600.45      157617.01    
     38400   396.94198      6731578.8      6724.9433      48.731617      2.3577398      156621.62      157561.09    
     38500   392.01812      6729475.3      6724.9433      48.731617      2.3577398      156574.33      157502.14    
     38600   401.12762      6728455.5      6724.9433      48.731617      2.3577398      156545.46      157494.83    
     38700   408.77629      6729619.4      6724.9433      48.731617      2.3577398      156570.62      157538.1     
     38800   401.95175      6732612        6724.9433      48.731617      2.3577398      156645.06      157596.38    
     38900   418.70067      6731934.4      6724.9433      48.731617      2.3577398      156622.76      157613.72    
     39000   402.93824      6730959.2      6724.9433      48.731617      2.3577398      156605.21      157558.87    
     39100   387.6781       6729838.9      6724.9433      48.731617      2.3577398      156585.16      157502.7     
     39200   381.22718      6730297.8      6724.9433      48.731617      2.3577398      156598.34      157500.62    
     39300   412.33157      6729664.1      6724.9433      48.731617      2.3577398      156570.27      157546.16    
     39400   412.24355      6731645.6      6724.9433      48.731617      2.3577398      156619.09      157594.77    
     39500   406.17031      6732352.1      6724.9433      48.731617      2.3577398      156637.94      157599.25    
     39600   398.17247      6730963        6724.9433      48.731617      2.3577398      156607.29      157549.67    
     39700   397.28556      6729521.1      6724.9433      48.731617      2.3577398      156572.59      157512.87    
     39800   394.65715      6729952.4      6724.9433      48.731617      2.3577398      156583.1       157517.16    
     39900   401.76721      6730881.9      6724.9433      48.731617      2.3577398      156604.27      157555.15    
     40000   413.25273      6731102.1      6724.9433      48.731617      2.3577398      156605.62      157583.69    
     40100   405.23357      6731627.4      6724.9433      48.731617      2.3577398      156620.39      157579.48    
     40200   399.4588       6730584        6724.9433      48.731617      2.3577398      156598.39      157543.82    
     40300   397.94524      6729751.5      6724.9433      48.731617      2.3577398      156577.1       157518.94    
     40400   386.63996      6730984.2      6724.9433      48.731617      2.3577398      156613.31      157528.39    
     40500   399.42206      6731655.9      6724.9433      48.731617      2.3577398      156623.73      157569.06    
     40600   404.52039      6732005.2      6724.9433      48.731617      2.3577398      156629.75      157587.15    
     40700   377.28301      6733004.5      6724.9433      48.731617      2.3577398      156664.16      157557.1     
     40800   387.64192      6730797.1      6724.9433      48.731617      2.3577398      156607.05      157524.51    
     40900   403.40566      6729355.3      6724.9433      48.731617      2.3577398      156565.29      157520.05    
     41000   391.54583      6731378.1      6724.9433      48.731617      2.3577398      156620.28      157546.98    
     41100   414.51186      6730857.2      6724.9433      48.731617      2.3577398      156598.88      157579.93    
     41200   403.58927      6731840.7      6724.9433      48.731617      2.3577398      156627.07      157582.27    
     41300   416.63567      6729587.7      6724.9433      48.731617      2.3577398      156566.72      157552.8     
     41400   384.02409      6730976.4      6724.9433      48.731617      2.3577398      156613.17      157522.07    
     41500   393.62893      6730072.1      6724.9433      48.731617      2.3577398      156586.95      157518.58    
     41600   414.91637      6729783.5      6724.9433      48.731617      2.3577398      156572.6       157554.61    
     41700   405.04842      6732111.7      6724.9433      48.731617      2.3577398      156632.7       157591.36    
     41800   405.70736      6731788.2      6724.9433      48.731617      2.3577398      156623.96      157584.18    
     41900   398.86013      6730565.2      6724.9433      48.731617      2.3577398      156596.89      157540.9     
     42000   386.35051      6730092.7      6724.9433      48.731617      2.3577398      156590.04      157504.44    
     42100   390.1553       6730319.1      6724.9433      48.731617      2.3577398      156593.85      157517.26    
     42200   399.24027      6731491.9      6724.9433      48.731617      2.3577398      156620.74      157565.65    
     42300   412.37861      6731843.5      6724.9433      48.731617      2.3577398      156623.34      157599.35    
     42400   402.74907      6732041.4      6724.9433      48.731617      2.3577398      156632.35      157585.56    
     42500   413.28305      6729320        6724.9433      48.731617      2.3577398      156561.5       157539.64    
     42600   395.15809      6729242.1      6724.9433      48.731617      2.3577398      156567.09      157502.34    
     42700   395.32487      6729797.1      6724.9433      48.731617      2.3577398      156579.57      157515.21    
     42800   411.39316      6730325.6      6724.9433      48.731617      2.3577398      156587.06      157560.73    
     42900   407.62308      6732182.4      6724.9433      48.731617      2.3577398      156633.61      157598.36    
     43000   410.067        6731706.6      6724.9433      48.731617      2.3577398      156620.81      157591.34    
     43100   392.14274      6731430.3      6724.9433      48.731617      2.3577398      156620.38      157548.49    
     43200   395.00542      6729823.7      6724.9433      48.731617      2.3577398      156581.87      157516.76    
     43300   378.81547      6731266.5      6724.9433      48.731617      2.3577398      156621.24      157517.81    
     43400   400.05627      6730689.2      6724.9433      48.731617      2.3577398      156600.53      157547.37    
     43500   394.99173      6732438.8      6724.9433      48.731617      2.3577398      156644.1       157578.95    
     43600   396.05109      6732512.3      6724.9433      48.731617      2.3577398      156646.38      157583.74    
     43700   402.81713      6731021.2      6724.9433      48.731617      2.3577398      156606.22      157559.6     
     43800   390.45577      6730700.4      6724.9433      48.731617      2.3577398      156604.05      157528.17    
     43900   375.06047      6731476.8      6724.9433      48.731617      2.3577398      156628.74      157516.42    
     44000   397.52057      6730947.4      6724.9433      48.731617      2.3577398      156606.57      157547.41    
     44100   412.04112      6730946.6      6724.9433      48.731617      2.3577398      156599.95      157575.15    
     44200   401.21933      6731719.3      6724.9433      48.731617      2.3577398      156625.35      157574.94    
     44300   401.82441      6730924.3      6724.9433      48.731617      2.3577398      156605.02      157556.04    
     44400   397.22608      6730619.4      6724.9433      48.731617      2.3577398      156599.43      157539.57    
     44500   382.2974       6731441.1      6724.9433      48.731617      2.3577398      156624.4       157529.21    
     44600   395.834        6730937.7      6724.9433      48.731617      2.3577398      156607.61      157544.46    
     44700   415.0006       6730122.9      6724.9433      48.731617      2.3577398      156580.34      157562.55    
     44800   398.65843      6731592        6724.9433      48.731617      2.3577398      156622.45      157565.98    
     44900   401.02547      6731379.2      6724.9433      48.731617      2.3577398      156616.8       157565.93    
     45000   407.36965      6730143.1      6724.9433      48.731617      2.3577398      156583.95      157548.09    
     45100   398.50731      6730531.9      6724.9433      48.731617      2.3577398      156596.64      157539.81    
     45200   392.8292       6731156.3      6724.9433      48.731617      2.3577398      156613.34      157543.07    
     45300   395.44643      6731008.2      6724.9433      48.731617      2.3577398      156609.94      157545.87    
     45400   405.64588      6730389.8      6724.9433      48.731617      2.3577398      156590.17      157550.24    
     45500   389.92249      6731948.4      6724.9433      48.731617      2.3577398      156635.11      157557.97    
     45600   393.21307      6731955        6724.9433      48.731617      2.3577398      156632.7       157563.35    
     45700   404.78168      6730784.9      6724.9433      48.731617      2.3577398      156601.06      157559.09    
     45800   405.125        6730314        6724.9433      48.731617      2.3577398      156588.25      157547.08    
     45900   407.68589      6729615.5      6724.9433      48.731617      2.3577398      156572.15      157537.04    
     46000   392.21368      6730778.8      6724.9433      48.731617      2.3577398      156604.66      157532.93    
     46100   392.7011       6731271.7      6724.9433      48.731617      2.3577398      156616.13      157545.56    
     46200   403.39673      6731495.7      6724.9433      48.731617      2.3577398      156618.11      157572.85    
     46300   409.25322      6731412.5      6724.9433      48.731617      2.3577398      156613.51      157582.12    
     46400   406.37196      6730633.9      6724.9433      48.731617      2.3577398      156595.21      157557       
     46500   394.43676      6730326        6724.9433      48.731617      2.3577398      156594.26      157527.8     
     46600   392.94413      6730105.2      6724.9433      48.731617      2.3577398      156588.7       157518.7     
     46700   404.21029      6729986.6      6724.9433      48.731617      2.3577398      156580.82      157537.49    
     46800   401.67313      6731923        6724.9433      48.731617      2.3577398      156628.92      157579.58    
     46900   418.88427      6731012.7      6724.9433      48.731617      2.3577398      156600.62      157592.02    
     47000   413.42665      6730478.8      6724.9433      48.731617      2.3577398      156589.59      157568.07    
     47100   395.09125      6730285.3      6724.9433      48.731617      2.3577398      156592.22      157527.3     
     47200   385.75425      6730074        6724.9433      48.731617      2.3577398      156590.31      157503.3     
     47300   392.10565      6730309.9      6724.9433      48.731617      2.3577398      156593.8       157521.82    
     47400   419.14385      6730480.2      6724.9433      48.731617      2.3577398      156587.19      157579.2     
     47500   411.20696      6732396.6      6724.9433      48.731617      2.3577398      156637.35      157610.58    
     47600   406.96376      6731631.2      6724.9433      48.731617      2.3577398      156620.15      157583.34    
     47700   399.19805      6729561        6724.9433      48.731617      2.3577398      156573.08      157517.89    
     47800   383.4352       6729521.3      6724.9433      48.731617      2.3577398      156578.77      157486.27    
     47900   421.83565      6728086.2      6724.9433      48.731617      2.3577398      156528.84      157527.23    
     48000   405.12303      6731717.1      6724.9433      48.731617      2.3577398      156622.76      157581.59    
     48100   399.08903      6733528.8      6724.9433      48.731617      2.3577398      156668.73      157613.28    
     48200   385.67448      6733379.3      6724.9433      48.731617      2.3577398      156670.79      157583.59    
     48300   407.29783      6729164        6724.9433      48.731617      2.3577398      156559.96      157523.94    
     48400   393.78916      6728905.1      6724.9433      48.731617      2.3577398      156558.16      157490.16    
     48500   379.25248      6730898.8      6724.9433      48.731617      2.3577398      156613.57      157511.17    
     48600   417.51357      6730564.3      6724.9433      48.731617      2.3577398      156590.03      157578.19    
     48700   420.76434      6731987.5      6724.9433      48.731617      2.3577398      156623.26      157619.11    
     48800   404.87619      6731992.1      6724.9433      48.731617      2.3577398      156629.5       157587.74    
     48900   391.18685      6730324.9      6724.9433      48.731617      2.3577398      156594.89      157520.73    
     49000   387.35712      6729191        6724.9433      48.731617      2.3577398      156567.18      157483.96    
     49100   403.74777      6729205.8      6724.9433      48.731617      2.3577398      156562.84      157518.42    
     49200   395.21177      6732317.2      6724.9433      48.731617      2.3577398      156640.79      157576.16    
     49300   425.92558      6731588        6724.9433      48.731617      2.3577398      156611.64      157619.71    
     49400   409.92625      6731870.3      6724.9433      48.731617      2.3577398      156624.67      157594.87    
     49500   397.79015      6729785.3      6724.9433      48.731617      2.3577398      156579.21      157520.69    
     49600   384.70696      6729190.8      6724.9433      48.731617      2.3577398      156568.3       157478.81    
     49700   395.48085      6729535.5      6724.9433      48.731617      2.3577398      156572.78      157508.79    
     49800   410.93801      6731318.1      6724.9433      48.731617      2.3577398      156611.29      157583.89    
     49900   410.99056      6732819        6724.9433      48.731617      2.3577398      156646.65      157619.37    
     50000   416.91265      6731203.3      6724.9433      48.731617      2.3577398      156605.59      157592.32    
     50100   405.10388      6729719.1      6724.9433      48.731617      2.3577398      156574.17      157532.96    
     50200   377.02049      6729935.6      6724.9433      48.731617      2.3577398      156589.92      157482.23    
     50300   394.15058      6729392.3      6724.9433      48.731617      2.3577398      156571.59      157504.45    
     50400   404.0458       6731294.7      6724.9433      48.731617      2.3577398      156613.3       157569.58    
     50500   415.6484       6732297.4      6724.9433      48.731617      2.3577398      156633.69      157617.44    
     50600   406.35503      6732327.9      6724.9433      48.731617      2.3577398      156636.46      157598.2     
     50700   395.20537      6730666.3      6724.9433      48.731617      2.3577398      156600.8       157536.15    
     50800   382.89703      6729757.9      6724.9433      48.731617      2.3577398      156583.26      157489.49    
     50900   398.40317      6729231        6724.9433      48.731617      2.3577398      156565.14      157508.07    
     51000   411.48381      6730457        6724.9433      48.731617      2.3577398      156589.66      157563.54    
     51100   415.52547      6731713.4      6724.9433      48.731617      2.3577398      156618.49      157601.94    
     51200   404.43342      6732176.4      6724.9433      48.731617      2.3577398      156634.71      157591.91    
     51300   398.60555      6730877.3      6724.9433      48.731617      2.3577398      156605.11      157548.51    
     51400   396.71622      6729139        6724.9433      48.731617      2.3577398      156564.56      157503.49    
     51500   376.93833      6730738        6724.9433      48.731617      2.3577398      156610.27      157502.39    
     51600   401.97996      6730800        6724.9433      48.731617      2.3577398      156602.29      157553.68    
     51700   389.6497       6733686.5      6724.9433      48.731617      2.3577398      156676.75      157598.96    
     51800   396.8574       6732832.6      6724.9433      48.731617      2.3577398      156652.72      157591.99    
     51900   396.21939      6731240.1      6724.9433      48.731617      2.3577398      156614.05      157551.8     
     52000   379.86636      6731073.4      6724.9433      48.731617      2.3577398      156617.81      157516.86    
     52100   384.05419      6730614        6724.9433      48.731617      2.3577398      156604.41      157513.38    
     52200   394.14813      6731086.9      6724.9433      48.731617      2.3577398      156612.01      157544.87    
     52300   396.93655      6732160.9      6724.9433      48.731617      2.3577398      156635.96      157575.41    
     52400   412.31772      6731056.1      6724.9433      48.731617      2.3577398      156605.04      157580.9     
     52500   408.4255       6730936.1      6724.9433      48.731617      2.3577398      156601.6       157568.25    
     52600   404.02891      6730144.4      6724.9433      48.731617      2.3577398      156585.33      157541.57    
     52700   411.7552       6728674.9      6724.9433      48.731617      2.3577398      156546.39      157520.92    
     52800   390.94085      6730867.7      6724.9433      48.731617      2.3577398      156607.35      157532.62    
     52900   390.83978      6731882.3      6724.9433      48.731617      2.3577398      156632.04      157557.06    
     53000   394.41379      6732009.5      6724.9433      48.731617      2.3577398      156634.45      157567.94    
     53100   403.83763      6731197.2      6724.9433      48.731617      2.3577398      156611.49      157567.28    
     53200   379.35798      6732927.5      6724.9433      48.731617      2.3577398      156662.8       157560.65    
     53300   406.2822       6730308.3      6724.9433      48.731617      2.3577398      156588.09      157549.66    
     53400   397.00528      6730333        6724.9433      48.731617      2.3577398      156592.67      157532.28    
     53500   389.86797      6730845.4      6724.9433      48.731617      2.3577398      156606.93      157529.66    
     53600   391.74622      6731411.8      6724.9433      48.731617      2.3577398      156621.63      157548.8     
     53700   418.26367      6730162.2      6724.9433      48.731617      2.3577398      156580.25      157570.19    
     53800   392.82169      6732364.5      6724.9433      48.731617      2.3577398      156643.68      157573.4     
     53900   405.04382      6731052.1      6724.9433      48.731617      2.3577398      156606.13      157564.77    
     54000   394.57204      6730869.7      6724.9433      48.731617      2.3577398      156605.72      157539.58    
     54100   383.13033      6730903.2      6724.9433      48.731617      2.3577398      156611.99      157518.77    
     54200   397.37317      6730063.6      6724.9433      48.731617      2.3577398      156586.02      157526.51    
     54300   397.22437      6731621.7      6724.9433      48.731617      2.3577398      156623.48      157563.62    
     54400   406.12879      6732214.8      6724.9433      48.731617      2.3577398      156634.65      157595.86    
     54500   402.65662      6732062.5      6724.9433      48.731617      2.3577398      156631.59      157584.58    
     54600   403.87514      6729872.9      6724.9433      48.731617      2.3577398      156579.21      157535.09    
     54700   376.12429      6730719        6724.9433      48.731617      2.3577398      156609.65      157499.85    
     54800   392.39424      6730015        6724.9433      48.731617      2.3577398      156586.73      157515.43    
     54900   392.92554      6731781        6724.9433      48.731617      2.3577398      156628.91      157558.87    
     55000   422.74455      6731261.4      6724.9433      48.731617      2.3577398      156604.94      157605.48    
     55100   401.97563      6733012.3      6724.9433      48.731617      2.3577398      156655.06      157606.44    
     55200   406.95564      6730370.6      6724.9433      48.731617      2.3577398      156589.98      157553.15    
     55300   380.50496      6729811.7      6724.9433      48.731617      2.3577398      156585.9       157486.47    
     55400   382.83905      6729432.2      6724.9433      48.731617      2.3577398      156575.95      157482.03    
     55500   406.47766      6730298.4      6724.9433      48.731617      2.3577398      156588.59      157550.63    
     55600   414.48797      6732430.1      6724.9433      48.731617      2.3577398      156637.17      157618.16    
     55700   402.45081      6733437.1      6724.9433      48.731617      2.3577398      156666.17      157618.68    
     55800   392.79811      6731780.5      6724.9433      48.731617      2.3577398      156628.99      157558.65    
     55900   397.57683      6728589.8      6724.9433      48.731617      2.3577398      156549.58      157490.55    
     56000   368.92966      6730380.1      6724.9433      48.731617      2.3577398      156605.03      157478.2     
     56100   391.57873      6730886.4      6724.9433      48.731617      2.3577398      156608.27      157535.05    
     56200   431.8433       6730769.2      6724.9433      48.731617      2.3577398      156589.17      157611.24    
     56300   412.83117      6733099.3      6724.9433      48.731617      2.3577398      156653.46      157630.53    
     56400   408.65618      6731173.4      6724.9433      48.731617      2.3577398      156608.32      157575.51    
     56500   398.55398      6728585.8      6724.9433      48.731617      2.3577398      156549.51      157492.8     
     56600   386.11399      6728486.2      6724.9433      48.731617      2.3577398      156551.9       157465.74    
     56700   395.63839      6730103.8      6724.9433      48.731617      2.3577398      156587.43      157523.81    
     56800   420.92435      6731697.4      6724.9433      48.731617      2.3577398      156616.52      157612.75    
     56900   430.86672      6732056.4      6724.9433      48.731617      2.3577398      156621.42      157641.18    
     57000   404.82208      6731875.8      6724.9433      48.731617      2.3577398      156627.17      157585.28    
     57100   395.30985      6729074.8      6724.9433      48.731617      2.3577398      156561.82      157497.43    
     57200   364.73074      6729997.9      6724.9433      48.731617      2.3577398      156596.52      157459.75    
     57300   390.4362       6729888.5      6724.9433      48.731617      2.3577398      156584.02      157508.09    
     57400   417.70371      6731532.2      6724.9433      48.731617      2.3577398      156613.38      157601.98    
     57500   402.3855       6734228.3      6724.9433      48.731617      2.3577398      156684.13      157636.48    
     57600   414.08882      6731506.4      6724.9433      48.731617      2.3577398      156613.89      157593.94    
     57700   393.17114      6730211.3      6724.9433      48.731617      2.3577398      156591.55      157522.09    
     57800   388.91785      6728783.7      6724.9433      48.731617      2.3577398      156557.07      157477.55    
     57900   387.47992      6729987.9      6724.9433      48.731617      2.3577398      156587.64      157504.71    
     58000   399.14092      6731682.5      6724.9433      48.731617      2.3577398      156624.8       157569.48    
     58100   425.3897       6731574.3      6724.9433      48.731617      2.3577398      156611.84      157618.64    
     58200   400.98701      6732771.5      6724.9433      48.731617      2.3577398      156650.52      157599.56    
     58300   405.93733      6729867.7      6724.9433      48.731617      2.3577398      156578.26      157539.02    
     58400   397.43783      6728665.5      6724.9433      48.731617      2.3577398      156551.01      157491.65    
     58500   373.90558      6730907.2      6724.9433      48.731617      2.3577398      156615.83      157500.77    
     58600   405.59052      6730722.4      6724.9433      48.731617      2.3577398      156598.84      157558.78    
     58700   416.92174      6731537.2      6724.9433      48.731617      2.3577398      156614.48      157601.23    
     58800   402.80495      6732317.6      6724.9433      48.731617      2.3577398      156638.26      157591.6     
     58900   399.60498      6731030.8      6724.9433      48.731617      2.3577398      156607.6       157553.37    
     59000   390.31143      6730475.8      6724.9433      48.731617      2.3577398      156598.05      157521.82    
     59100   391.59544      6730025.3      6724.9433      48.731617      2.3577398      156587.13      157513.95    
     59200   395.14685      6730529.1      6724.9433      48.731617      2.3577398      156597.89      157533.1     
     59300   405.42902      6731201.8      6724.9433      48.731617      2.3577398      156610.05      157569.6     
     59400   407.56004      6731781.1      6724.9433      48.731617      2.3577398      156622.88      157587.48    
     59500   409.49657      6731019.5      6724.9433      48.731617      2.3577398      156604.71      157573.89    
     59600   394.95084      6731111.3      6724.9433      48.731617      2.3577398      156612.2       157546.96    
     59700   396.12346      6730214.2      6724.9433      48.731617      2.3577398      156589.77      157527.3     
     59800   398.83511      6729881        6724.9433      48.731617      2.3577398      156580.77      157524.71    
     59900   391.26478      6731091.5      6724.9433      48.731617      2.3577398      156613.22      157539.25    
     60000   412.02513      6730307.3      6724.9433      48.731617      2.3577398      156585.89      157561.06    
     60100   409.0306       6731280.8      6724.9433      48.731617      2.3577398      156611.45      157579.53    
     60200   411.18286      6731330.4      6724.9433      48.731617      2.3577398      156611.24      157584.42    
     60300   405.99959      6730593.2      6724.9433      48.731617      2.3577398      156595.66      157556.56    
     60400   402.14009      6729320.1      6724.9433      48.731617      2.3577398      156566.41      157518.18    
     60500   397.44326      6729392.5      6724.9433      48.731617      2.3577398      156569.36      157510.01    
     60600   384.7394       6731566.4      6724.9433      48.731617      2.3577398      156626.24      157536.83    
     60700   404.36068      6731649.1      6724.9433      48.731617      2.3577398      156621.49      157578.51    
     60800   422.4134       6731046.6      6724.9433      48.731617      2.3577398      156600.24      157600       
     60900   412.39081      6731253.5      6724.9433      48.731617      2.3577398      156608.69      157584.72    
     61000   388.13355      6730945.5      6724.9433      48.731617      2.3577398      156610.62      157529.24    
     61100   379.57525      6729965.4      6724.9433      48.731617      2.3577398      156590.59      157488.95    
     61200   372.0102       6731391.3      6724.9433      48.731617      2.3577398      156627.55      157508.01    
     61300   411.7657       6730732.2      6724.9433      48.731617      2.3577398      156596.38      157570.93    
     61400   406.44302      6732942.8      6724.9433      48.731617      2.3577398      156651.33      157613.28    
     61500   417.7882       6731607.7      6724.9433      48.731617      2.3577398      156615.56      157604.36    
     61600   391.28501      6731293.6      6724.9433      48.731617      2.3577398      156617.76      157543.84    
     61700   384.08494      6729433.1      6724.9433      48.731617      2.3577398      156576.06      157485.09    
     61800   395.13551      6728658.4      6724.9433      48.731617      2.3577398      156552.09      157487.28    
     61900   404.92176      6730410.4      6724.9433      48.731617      2.3577398      156591.61      157549.96    
     62000   417.78205      6732270.6      6724.9433      48.731617      2.3577398      156631.1       157619.89    
     62100   436.66098      6731101.9      6724.9433      48.731617      2.3577398      156594.93      157628.4     
     62200   400.49171      6730949.7      6724.9433      48.731617      2.3577398      156606.87      157554.74    
     62300   393.33062      6728552.1      6724.9433      48.731617      2.3577398      156550.18      157481.1     
     62400   389.95247      6728692.1      6724.9433      48.731617      2.3577398      156555.8       157478.73    
     62500   390.2916       6731166.7      6724.9433      48.731617      2.3577398      156614.96      157538.69    
     62600   402.13698      6733101.6      6724.9433      48.731617      2.3577398      156656.77      157608.53    
     62700   412.41941      6733084.8      6724.9433      48.731617      2.3577398      156652.58      157628.68    
     62800   393.90947      6732506.3      6724.9433      48.731617      2.3577398      156646.49      157578.78    
     62900   386.6325       6729596.4      6724.9433      48.731617      2.3577398      156580.16      157495.22    
     63000   394.33068      6728009.8      6724.9433      48.731617      2.3577398      156537.42      157470.7     
     63100   400.13144      6729655.6      6724.9433      48.731617      2.3577398      156574.21      157521.22    
     63200   399.13542      6732944.7      6724.9433      48.731617      2.3577398      156654.24      157598.9     
     63300   431.13129      6731699.7      6724.9433      48.731617      2.3577398      156611.83      157632.22    
     63400   409.62834      6731580.6      6724.9433      48.731617      2.3577398      156617.17      157586.67    
     63500   403.0095       6729109.8      6724.9433      48.731617      2.3577398      156560.28      157514.11    
     63600   388.93961      6728660.2      6724.9433      48.731617      2.3577398      156555.61      157476.14    
     63700   391.4611       6729845.3      6724.9433      48.731617      2.3577398      156582.04      157508.54    
     63800   402.25146      6731732.5      6724.9433      48.731617      2.3577398      156624.67      157576.7     
     63900   417.14962      6732419        6724.9433      48.731617      2.3577398      156635.41      157622.7     
     64000   419.20783      6731411.6      6724.9433      48.731617      2.3577398      156609.74      157601.91    
     64100   404.8471       6729744.8      6724.9433      48.731617      2.3577398      156574.99      157533.17    
     64200   377.59749      6729976        6724.9433      48.731617      2.3577398      156592.77      157486.46    
     64300   394.55487      6729259.6      6724.9433      48.731617      2.3577398      156567.44      157501.25    
     64400   411.75106      6730308.6      6724.9433      48.731617      2.3577398      156586.64      157561.16    
     64500   408.98738      6732347        6724.9433      48.731617      2.3577398      156637.16      157605.13    
     64600   396.33757      6733191.2      6724.9433      48.731617      2.3577398      156662.08      157600.12    
     64700   403.25534      6730756.3      6724.9433      48.731617      2.3577398      156599.27      157553.68    
     64800   392.39576      6729731.1      6724.9433      48.731617      2.3577398      156579.95      157508.65    
     64900   378.19924      6730611.7      6724.9433      48.731617      2.3577398      156606.83      157501.94    
     65000   404.77836      6729998.2      6724.9433      48.731617      2.3577398      156582.01      157540.02    
     65100   414.29302      6730998.2      6724.9433      48.731617      2.3577398      156601.84      157582.37    
     65200   428.86776      6730275.4      6724.9433      48.731617      2.3577398      156578.81      157593.83    
[...]
    384300   398.55103      6731463.4      6724.9433      48.731617      2.3577398      156619.91      157563.19    
    384400   393.03118      6729438.3      6724.9433      48.731617      2.3577398      156571.78      157501.99    
    384500   387.52873      6729366.6      6724.9433      48.731617      2.3577398      156572.71      157489.9     
    384600   376.13208      6731654.3      6724.9433      48.731617      2.3577398      156633.22      157523.43    
    384700   397.87198      6730784.5      6724.9433      48.731617      2.3577398      156602.52      157544.18    
    384800   410.95065      6730134        6724.9433      48.731617      2.3577398      156582.03      157554.66    
    384900   401.81658      6730925.4      6724.9433      48.731617      2.3577398      156604.98      157555.99    
    385000   399.15938      6730900.3      6724.9433      48.731617      2.3577398      156604.85      157549.56    
    385100   408.03945      6729631.9      6724.9433      48.731617      2.3577398      156572.43      157538.16    
    385200   394.01134      6730546.9      6724.9433      48.731617      2.3577398      156598.15      157530.68    
    385300   396.29763      6730826.3      6724.9433      48.731617      2.3577398      156605.25      157543.19    
    385400   409.71143      6731339.3      6724.9433      48.731617      2.3577398      156611.34      157581.03    
    385500   412.99624      6732253.4      6724.9433      48.731617      2.3577398      156632.33      157609.79    
    385600   382.21439      6733459.5      6724.9433      48.731617      2.3577398      156675.06      157579.67    
    385700   404.29057      6728841.3      6724.9433      48.731617      2.3577398      156553.31      157510.17    
    385800   398.09442      6729328.7      6724.9433      48.731617      2.3577398      156567.27      157509.47    
    385900   401.19611      6730643.3      6724.9433      48.731617      2.3577398      156598.32      157547.86    
    386000   410.46672      6731202.8      6724.9433      48.731617      2.3577398      156608.62      157580.1     
    386100   410.6493       6730966.2      6724.9433      48.731617      2.3577398      156602.38      157574.29    
    386200   392.99694      6731762.3      6724.9433      48.731617      2.3577398      156629.48      157559.61    
    386300   396.86227      6731226.5      6724.9433      48.731617      2.3577398      156614.02      157553.3     
    386400   412.45676      6730022.4      6724.9433      48.731617      2.3577398      156578.79      157554.98    
    386500   391.54842      6731420.7      6724.9433      48.731617      2.3577398      156621.15      157547.85    
    386600   381.9706       6731273        6724.9433      48.731617      2.3577398      156621.6       157525.63    
    386700   379.71245      6731034        6724.9433      48.731617      2.3577398      156614.62      157513.3     
    386800   379.61645      6731853.2      6724.9433      48.731617      2.3577398      156636.13      157534.59    
    386900   392.51156      6733060        6724.9433      48.731617      2.3577398      156659.78      157588.76    
    387000   418.17012      6731183.1      6724.9433      48.731617      2.3577398      156605.72      157595.43    
    387100   394.23442      6731225.5      6724.9433      48.731617      2.3577398      156615.45      157548.51    
    387200   381.08324      6729777        6724.9433      48.731617      2.3577398      156585.94      157487.87    
    387300   379.01783      6730327.9      6724.9433      48.731617      2.3577398      156599.75      157496.8     
    387400   414.33958      6729045.1      6724.9433      48.731617      2.3577398      156554.08      157534.72    
    387500   392.99327      6732045.1      6724.9433      48.731617      2.3577398      156635.49      157565.61    
    387600   392.09996      6732699.7      6724.9433      48.731617      2.3577398      156651.68      157579.69    
    387700   391.09691      6731920.3      6724.9433      48.731617      2.3577398      156632.83      157558.47    
    387800   398.26963      6727878.4      6724.9433      48.731617      2.3577398      156532.19      157474.8     
    387900   369.94863      6730654.5      6724.9433      48.731617      2.3577398      156611.25      157486.83    
    388000   392.02748      6730933.9      6724.9433      48.731617      2.3577398      156609.07      157536.9     
    388100   409.08951      6730820.5      6724.9433      48.731617      2.3577398      156599.85      157568.07    
    388200   397.52981      6731978.8      6724.9433      48.731617      2.3577398      156632.18      157573.04    
    388300   409.3544       6730040.9      6724.9433      48.731617      2.3577398      156579.45      157548.3     
    388400   400.41669      6727859        6724.9433      48.731617      2.3577398      156531.1       157478.79    
    388500   385.66544      6729068.6      6724.9433      48.731617      2.3577398      156567.18      157479.96    
    388600   391.43873      6730895.9      6724.9433      48.731617      2.3577398      156608.55      157535       
    388700   397.58606      6731291.5      6724.9433      48.731617      2.3577398      156614.68      157555.67    
    388800   410.14087      6730509.1      6724.9433      48.731617      2.3577398      156591.37      157562.08    
    388900   397.19328      6730910.9      6724.9433      48.731617      2.3577398      156606.95      157547.01    
    389000   400.02878      6729560.2      6724.9433      48.731617      2.3577398      156572.06      157518.83    
    389100   388.33161      6729316.1      6724.9433      48.731617      2.3577398      156571.55      157490.64    
    389200   384.95383      6731017.1      6724.9433      48.731617      2.3577398      156614.12      157525.22    
    389300   414.36286      6731081.1      6724.9433      48.731617      2.3577398      156602.94      157583.63    
    389400   402.2726       6732038.8      6724.9433      48.731617      2.3577398      156631.73      157583.82    
    389500   396.32755      6731111.7      6724.9433      48.731617      2.3577398      156611.84      157549.85    
    389600   401.72228      6729391.2      6724.9433      48.731617      2.3577398      156567.93      157518.72    
    389700   402.82032      6728095.8      6724.9433      48.731617      2.3577398      156534.78      157488.16    
    389800   388.50669      6728084.9      6724.9433      48.731617      2.3577398      156540.33      157459.84    
    389900   381.16001      6730656.3      6724.9433      48.731617      2.3577398      156606.59      157508.71    
    390000   398.49864      6731384.3      6724.9433      48.731617      2.3577398      156616.56      157559.71    
    390100   405.51056      6731460.1      6724.9433      48.731617      2.3577398      156617.45      157577.2     
    390200   404.91907      6731318.1      6724.9433      48.731617      2.3577398      156612.82      157571.17    
    390300   370.82267      6732299        6724.9433      48.731617      2.3577398      156650.59      157528.24    
    390400   403.10508      6728114.7      6724.9433      48.731617      2.3577398      156536.36      157490.41    
    390500   394.11108      6729877.1      6724.9433      48.731617      2.3577398      156583.22      157515.99    
    390600   403.39174      6732019.1      6724.9433      48.731617      2.3577398      156631.33      157586.07    
    390700   425.67486      6730484.4      6724.9433      48.731617      2.3577398      156584.66      157592.13    
    390800   393.48865      6731612.3      6724.9433      48.731617      2.3577398      156625.09      157556.38    
    390900   392.70924      6730650.1      6724.9433      48.731617      2.3577398      156601.15      157530.6     
    391000   391.09124      6730656.7      6724.9433      48.731617      2.3577398      156602.44      157528.06    
    391100   413.32553      6729396.4      6724.9433      48.731617      2.3577398      156564.2       157542.45    
    391200   397.01049      6732593        6724.9433      48.731617      2.3577398      156647.59      157587.22    
    391300   420.34794      6731292.3      6724.9433      48.731617      2.3577398      156606.51      157601.38    
    391400   411.01097      6730246.8      6724.9433      48.731617      2.3577398      156585.39      157558.16    
    391500   402.72334      6729182.4      6724.9433      48.731617      2.3577398      156562.01      157515.16    
    391600   390.61455      6729896.6      6724.9433      48.731617      2.3577398      156584.2       157508.69    
    391700   408.9736       6730904.4      6724.9433      48.731617      2.3577398      156601.5       157569.45    
    391800   415.17964      6732137.6      6724.9433      48.731617      2.3577398      156628.86      157611.49    
    391900   415.34505      6730621.9      6724.9433      48.731617      2.3577398      156591.77      157574.79    
    392000   385.29123      6731311.9      6724.9433      48.731617      2.3577398      156620.42      157532.31    
    392100   403.60941      6728854.6      6724.9433      48.731617      2.3577398      156554.03      157509.28    
    392200   420.3211       6728374.1      6724.9433      48.731617      2.3577398      156535.56      157530.36    
    392300   417.46924      6731629.9      6724.9433      48.731617      2.3577398      156615.76      157603.81    
    392400   410.91992      6731890.2      6724.9433      48.731617      2.3577398      156625.27      157597.82    
    392500   403.09836      6731123.6      6724.9433      48.731617      2.3577398      156610.01      157564.05    
    392600   391.53586      6730836.1      6724.9433      48.731617      2.3577398      156606.13      157532.8     
    392700   387.7302       6730585.2      6724.9433      48.731617      2.3577398      156602.38      157520.05    
    392800   409.94011      6729150.1      6724.9433      48.731617      2.3577398      156559.77      157530       
    392900   403.84298      6730199.9      6724.9433      48.731617      2.3577398      156585.65      157541.45    
    393000   401.34244      6731287.6      6724.9433      48.731617      2.3577398      156612.95      157562.83    
    393100   413.97376      6731105.3      6724.9433      48.731617      2.3577398      156604.92      157584.69    
    393200   402.36916      6732147.2      6724.9433      48.731617      2.3577398      156634.38      157586.69    
    393300   399.91711      6730369.6      6724.9433      48.731617      2.3577398      156592.33      157538.83    
    393400   379.32692      6730225.1      6724.9433      48.731617      2.3577398      156597.21      157494.99    
    393500   394.66428      6729937.3      6724.9433      48.731617      2.3577398      156583.1       157517.18    
    393600   406.13468      6731061.2      6724.9433      48.731617      2.3577398      156607.21      157568.43    
    393700   411.11544      6731191        6724.9433      48.731617      2.3577398      156607.73      157580.75    
    393800   398.96396      6731447.9      6724.9433      48.731617      2.3577398      156618.94      157563.2     
    393900   391.24204      6730593.1      6724.9433      48.731617      2.3577398      156601.13      157527.11    
    394000   395.71015      6729842.6      6724.9433      48.731617      2.3577398      156580.57      157517.12    
    394100   410.38829      6731077.5      6724.9433      48.731617      2.3577398      156605.26      157576.55    
    394200   427.91092      6731700.5      6724.9433      48.731617      2.3577398      156612.86      157625.62    
    394300   408.24984      6731984.1      6724.9433      48.731617      2.3577398      156627.74      157593.97    
    394400   399.48295      6730306        6724.9433      48.731617      2.3577398      156591.1       157536.58    
    394500   388.04004      6730548.4      6724.9433      48.731617      2.3577398      156602.16      157520.56    
    394600   397.36436      6730407        6724.9433      48.731617      2.3577398      156593.9       157534.37    
    394700   414.32894      6731318.2      6724.9433      48.731617      2.3577398      156609.66      157590.27    
    394800   431.68494      6731695.2      6724.9433      48.731617      2.3577398      156611.36      157633.06    
    394900   414.45717      6731778.7      6724.9433      48.731617      2.3577398      156620.41      157601.33    
    395000   419.41896      6729627.9      6724.9433      48.731617      2.3577398      156567.06      157559.73    
    395100   396.05303      6730578.9      6724.9433      48.731617      2.3577398      156598.73      157536.1     
    395200   377.90585      6731607.3      6724.9433      48.731617      2.3577398      156630.2       157524.61    
    395300   397.70725      6730972.4      6724.9433      48.731617      2.3577398      156606.98      157548.26    
    395400   403.50677      6732774.2      6724.9433      48.731617      2.3577398      156648.49      157603.5     
    395500   414.06164      6731736        6724.9433      48.731617      2.3577398      156619.55      157599.54    
    395600   400.50555      6730572.9      6724.9433      48.731617      2.3577398      156597.31      157545.21    
    395700   367.28173      6731916.3      6724.9433      48.731617      2.3577398      156641.83      157511.1     
    395800   378.22463      6731447.6      6724.9433      48.731617      2.3577398      156626.68      157521.85    
    395900   386.42648      6731720.1      6724.9433      48.731617      2.3577398      156630.33      157544.91    
    396000   404.97748      6730667.1      6724.9433      48.731617      2.3577398      156598.01      157556.49    
    396100   419.27465      6729592.6      6724.9433      48.731617      2.3577398      156564.43      157556.75    
    396200   404.57918      6729653.5      6724.9433      48.731617      2.3577398      156573.07      157530.62    
    396300   389.02577      6728968.7      6724.9433      48.731617      2.3577398      156561.42      157482.16    
    396400   390.14583      6729183.6      6724.9433      48.731617      2.3577398      156567.14      157490.53    
    396500   383.72912      6732245.2      6724.9433      48.731617      2.3577398      156643.31      157551.5     
    396600   391.26575      6732550.4      6724.9433      48.731617      2.3577398      156647.89      157573.92    
    396700   418.75999      6730040.8      6724.9433      48.731617      2.3577398      156577.41      157568.52    
    396800   373.76283      6732289.6      6724.9433      48.731617      2.3577398      156649.19      157533.8     
    396900   392.45406      6728299.8      6724.9433      48.731617      2.3577398      156545.71      157474.56    
    397000   403.94607      6726990.4      6724.9433      48.731617      2.3577398      156508.96      157465.01    
    397100   393.78109      6731417.2      6724.9433      48.731617      2.3577398      156619.41      157551.39    
    397200   403.61728      6731762.9      6724.9433      48.731617      2.3577398      156624.51      157579.78    
    397300   410.97381      6730953.4      6724.9433      48.731617      2.3577398      156602.8       157575.47    
    397400   399.67129      6730254.2      6724.9433      48.731617      2.3577398      156590.74      157536.67    
    397500   395.60932      6729470.4      6724.9433      48.731617      2.3577398      156571.74      157508.06    
    397600   390.0526       6730224.6      6724.9433      48.731617      2.3577398      156592.88      157516.04    
    397700   390.5834       6733211.3      6724.9433      48.731617      2.3577398      156665.02      157589.44    
    397800   416.12285      6731698.1      6724.9433      48.731617      2.3577398      156618.16      157603.02    
    397900   423.71631      6729504.8      6724.9433      48.731617      2.3577398      156562.06      157564.9     
    398000   405.39429      6729343.2      6724.9433      48.731617      2.3577398      156564.98      157524.45    
    398100   399.67078      6729980.4      6724.9433      48.731617      2.3577398      156582.65      157528.57    
    398200   406.7048       6730022.7      6724.9433      48.731617      2.3577398      156580.91      157543.48    
    398300   402.23537      6731006.5      6724.9433      48.731617      2.3577398      156606.98      157558.98    
    398400   394.05856      6731963.3      6724.9433      48.731617      2.3577398      156633.22      157565.86    
    398500   401.62599      6730791.4      6724.9433      48.731617      2.3577398      156601.87      157552.42    
    398600   396.36735      6730017.8      6724.9433      48.731617      2.3577398      156585.27      157523.38    
    398700   392.26836      6729951.6      6724.9433      48.731617      2.3577398      156584.88      157513.28    
    398800   399.53694      6730748.3      6724.9433      48.731617      2.3577398      156601.04      157546.65    
    398900   415.25096      6731445.5      6724.9433      48.731617      2.3577398      156612.82      157595.62    
    399000   393.45817      6732742.4      6724.9433      48.731617      2.3577398      156651.94      157583.17    
    399100   395.79071      6730807.4      6724.9433      48.731617      2.3577398      156605.08      157541.82    
    399200   381.20966      6729245        6724.9433      48.731617      2.3577398      156572.24      157474.48    
    399300   389.9688       6728585.1      6724.9433      48.731617      2.3577398      156553.55      157476.51    
    399400   403.88639      6729077.5      6724.9433      48.731617      2.3577398      156559.1       157515.01    
    399500   417.4669       6729874.7      6724.9433      48.731617      2.3577398      156573.54      157561.59    
    399600   398.1114       6732573.3      6724.9433      48.731617      2.3577398      156646.82      157589.06    
    399700   410.89639      6730864.3      6724.9433      48.731617      2.3577398      156600.79      157573.29    
    399800   407.64743      6728511.8      6724.9433      48.731617      2.3577398      156543.86      157508.67    
    399900   390.737        6729178.5      6724.9433      48.731617      2.3577398      156567.08      157491.86    
    400000   394.27922      6729932.1      6724.9433      48.731617      2.3577398      156583.8       157516.96    
    400100   387.80198      6731575.4      6724.9433      48.731617      2.3577398      156626.73      157544.57    
Loop time of 24.036 on 64 procs for 400000 steps with 795 atoms

Performance: 359.461 ns/day, 0.067 hours/ns, 16641.723 timesteps/s
99.4% CPU use with 64 MPI tasks x 1 OpenMP threads

MPI task timing breakdown:
Section |  min time  |  avg time  |  max time  |%varavg| %total
---------------------------------------------------------------
Pair    | 1.9648     | 2.7444     | 3.5388     |  21.7 | 11.42
Neigh   | 0.062462   | 0.0833     | 0.10463    |   2.9 |  0.35
Comm    | 13.613     | 15.058     | 16.505     |  17.6 | 62.65
Output  | 0.50617    | 0.51027    | 0.547      |   0.7 |  2.12
Modify  | 3.5342     | 5.1104     | 6.2452     |  26.5 | 21.26
Other   |            | 0.5294     |            |       |  2.20

Nlocal:        12.4219 ave          16 max           9 min
Histogram: 3 3 9 0 21 13 0 8 6 1
Nghost:         646.25 ave         684 max         619 min
Histogram: 3 5 9 11 15 10 9 1 0 1
Neighs:        827.062 ave        1052 max         590 min
Histogram: 3 0 7 12 11 5 12 7 4 3

Total # of neighbors = 52932
Ave neighs/atom = 66.581132
Neighbor list builds = 3091
Dangerous builds = 19

write_data graphene_single_layer_LJ_795C_after_temp_400K.data ### MODIFY FILE NAME ###
System init for write_data ...
Generated 0 of 0 mixed pair_coeff terms from geometric mixing rule
Total wall time: 0:00:24
