# System definition
read_data graphene_single_layer_x-45_y-45_795_C.data  ### MODIFY FILE NAME ###
Reading data file ...
  orthogonal box = (-1.4464652 -1.4423034 -1.42) to (47.285152 47.149102 1.42)
  8 by 8 by 1 MPI processor grid
  reading atoms ...
  795 atoms
  reading velocities ...
  795 velocities
  read_data CPU = 0.046 seconds
pair_style lj/cut 6
pair_coeff      1 1 0.066047 3.4

# Virtual force wall to keep the cylinder shape
#region myCylinder cylinder z 0. 0. 20.3 -22.079997 505.920003 units box
#fix wall all wall/region myCylinder lj93 1.0 1.0 2.5

# Minimization
timestep 0.25
thermo 100
thermo_style custom step temp press vol lx density pe etotal
dump 2 all custom 1000 graphene_single_layer_LJ_795C_after_temp_200K.lammpstrj id type x y z ### MODIFY FILE NAME ###
min_style cg
minimize 1.0e-6 1.0e-6 100 1000
WARNING: Using 'neigh_modify every 1 delay 0 check yes' setting during minimization (src/min.cpp:187)
Generated 0 of 0 mixed pair_coeff terms from geometric mixing rule
Neighbor list info ...
  update every 1 steps, delay 0 steps, check yes
  max neighbors/atom: 10000, page size: 100000
  master list distance cutoff = 6.4
  ghost atom cutoff = 6.4
  binsize = 3.2, bins = 16 16 1
  1 neighbor lists, perpetual/occasional/extra = 1 0 0
  (1) pair lj/cut, perpetual
      attributes: half, newton on
      pair build: half/bin/atomonly/newton
      stencil: half/bin/3d
      bin: standard
Per MPI rank memory allocation (min/avg/max) = 5.47 | 5.472 | 5.472 Mbytes
   Step          Temp          Press          Volume           Lx          Density         PotEng         TotEng    
         0   923            3.5764745e+08  6724.9433      48.731617      2.3577398      8739313.6      8741498.1    
       100   923            47390520       6724.9433      48.731617      2.3577398      1146833.4      1149017.9    
Loop time of 0.0251909 on 64 procs for 100 steps with 795 atoms

97.6% CPU use with 64 MPI tasks x 1 OpenMP threads

Minimization stats:
  Stopping criterion = max iterations
  Energy initial, next-to-last, final = 
      8739313.57439336   1156380.83320826   1146833.40532139
  Force two-norm initial, final = 757147.49 28301.772
  Force max component initial, final = 127132.22 7330.8006
  Final line search alpha, max atom move = 9.6526089e-06 0.070761352
  Iterations, force evaluations = 100 123

MPI task timing breakdown:
Section |  min time  |  avg time  |  max time  |%varavg| %total
---------------------------------------------------------------
Pair    | 0.0017518  | 0.0025776  | 0.003048   |   0.6 | 10.23
Neigh   | 0.0010701  | 0.001507   | 0.0017884  |   0.4 |  5.98
Comm    | 0.0083261  | 0.0091326  | 0.010405   |   0.5 | 36.25
Output  | 7.7956e-05 | 8.2502e-05 | 9.9477e-05 |   0.0 |  0.33
Modify  | 0          | 0          | 0          |   0.0 |  0.00
Other   |            | 0.01189    |            |       | 47.20

Nlocal:        12.4219 ave          15 max           9 min
Histogram: 1 3 0 11 0 17 19 0 11 2
Nghost:        579.656 ave         611 max         547 min
Histogram: 1 5 5 9 9 13 9 7 4 2
Neighs:        790.734 ave         969 max         597 min
Histogram: 3 2 10 1 15 7 13 5 7 1

Total # of neighbors = 50607
Ave neighs/atom = 63.656604
Neighbor list builds = 37
Dangerous builds = 0
#timestep 0.25
fix 1 all nvt temp 200.0 200.0 $(100.0*dt) ### MODIFY INITIAL TEMP, FINAL TEMP ###
fix 1 all nvt temp 200.0 200.0 25 
run 400000
Generated 0 of 0 mixed pair_coeff terms from geometric mixing rule
Per MPI rank memory allocation (min/avg/max) = 4.346 | 4.347 | 4.347 Mbytes
   Step          Temp          Press          Volume           Lx          Density         PotEng         TotEng    
       100   923            47390520       6724.9433      48.731617      2.3577398      1146833.4      1149017.9    
       200   5559.0867      9503914.9      6724.9433      48.731617      2.3577398      221928.16      235085.2     
       300   1797.8148      8020811        6724.9433      48.731617      2.3577398      187366.34      191621.34    
       400   850.37807      7562359.1      6724.9433      48.731617      2.3577398      176598.17      178610.81    
       500   560.17943      7375964.6      6724.9433      48.731617      2.3577398      172185.91      173511.73    
       600   407.42301      7255370        6724.9433      48.731617      2.3577398      169322.18      170286.45    
       700   304.33713      7187947.8      6724.9433      48.731617      2.3577398      167725.8       168446.1     
       800   247.39839      7144881.7      6724.9433      48.731617      2.3577398      166702.9       167288.43    
       900   326.13017      7089546.6      6724.9433      48.731617      2.3577398      165329.66      166101.53    
      1000   368.69172      7021073.7      6724.9433      48.731617      2.3577398      163650.27      164522.88    
      1100   236.5929       6973987.3      6724.9433      48.731617      2.3577398      162560.1       163120.06    
      1200   231.38444      6938456.8      6724.9433      48.731617      2.3577398      161699.98      162247.61    
      1300   256.04129      6899311.1      6724.9433      48.731617      2.3577398      160740.15      161346.14    
      1400   159.34338      6877854.1      6724.9433      48.731617      2.3577398      160257.75      160634.87    
      1500   130.57676      6867971.2      6724.9433      48.731617      2.3577398      160029.14      160338.19    
      1600   130.06263      6866365.7      6724.9433      48.731617      2.3577398      159990.98      160298.81    
      1700   256.18478      6864378.9      6724.9433      48.731617      2.3577398      159893.95      160500.28    
      1800   275.03962      6863410.5      6724.9433      48.731617      2.3577398      159862.83      160513.78    
      1900   200.44938      6854489.4      6724.9433      48.731617      2.3577398      159675.8       160150.22    
      2000   151.43967      6848022        6724.9433      48.731617      2.3577398      159538.2       159896.63    
      2100   169.63754      6844610.2      6724.9433      48.731617      2.3577398      159447.92      159849.41    
      2200   316.70948      6835111.6      6724.9433      48.731617      2.3577398      159161.49      159911.06    
      2300   291.50672      6813424.1      6724.9433      48.731617      2.3577398      158644.47      159334.39    
      2400   137.88663      6801367.1      6724.9433      48.731617      2.3577398      158412.43      158738.77    
      2500   112.5777       6796761.1      6724.9433      48.731617      2.3577398      158310.48      158576.92    
      2600   148.65892      6797248.1      6724.9433      48.731617      2.3577398      158308.66      158660.5     
      2700   226.58879      6803466.1      6724.9433      48.731617      2.3577398      158429.26      158965.55    
      2800   296.13765      6808655.9      6724.9433      48.731617      2.3577398      158527.49      159228.38    
      2900   236.99777      6803580        6724.9433      48.731617      2.3577398      158428.13      158989.05    
      3000   196.83871      6791965.7      6724.9433      48.731617      2.3577398      158162.62      158628.49    
      3100   231.12085      6774664.7      6724.9433      48.731617      2.3577398      157729.02      158276.03    
      3200   148.73878      6769171.2      6724.9433      48.731617      2.3577398      157628.25      157980.28    
      3300   178.57877      6762284.3      6724.9433      48.731617      2.3577398      157449.4       157872.05    
      3400   173.94319      6761867.7      6724.9433      48.731617      2.3577398      157441.69      157853.37    
      3500   197.13549      6762412.9      6724.9433      48.731617      2.3577398      157445.21      157911.79    
      3600   208.37464      6765012.7      6724.9433      48.731617      2.3577398      157503.92      157997.1     
      3700   225.18304      6766681.6      6724.9433      48.731617      2.3577398      157538.25      158071.21    
      3800   226.37268      6764649.7      6724.9433      48.731617      2.3577398      157488.87      158024.64    
      3900   210.86196      6759321.9      6724.9433      48.731617      2.3577398      157365.69      157864.75    
      4000   214.9544       6749525.6      6724.9433      48.731617      2.3577398      157126.53      157635.27    
      4100   174.71494      6734780.9      6724.9433      48.731617      2.3577398      156784.66      157198.16    
      4200   144.22519      6727454.7      6724.9433      48.731617      2.3577398      156619.77      156961.12    
      4300   155.01897      6725586.2      6724.9433      48.731617      2.3577398      156570.85      156937.74    
      4400   201.51047      6728889.4      6724.9433      48.731617      2.3577398      156631.8       157108.72    
      4500   274.81637      6730844.9      6724.9433      48.731617      2.3577398      156650.91      157301.33    
      4600   222.29201      6727322.3      6724.9433      48.731617      2.3577398      156585.68      157111.79    
      4700   164.10727      6722014.5      6724.9433      48.731617      2.3577398      156480.2       156868.6     
      4800   156.99232      6718817.9      6724.9433      48.731617      2.3577398      156405.83      156777.4     
      4900   176.24393      6719804.2      6724.9433      48.731617      2.3577398      156421.17      156838.3     
      5000   211.72038      6724241.2      6724.9433      48.731617      2.3577398      156514.38      157015.47    
      5100   253.41068      6726414.7      6724.9433      48.731617      2.3577398      156551.63      157151.39    
      5200   199.15389      6727186        6724.9433      48.731617      2.3577398      156591.83      157063.18    
      5300   172.57991      6724704.2      6724.9433      48.731617      2.3577398      156542.68      156951.13    
      5400   196.85704      6720943.6      6724.9433      48.731617      2.3577398      156441.6       156907.51    
      5500   191.24975      6720864.3      6724.9433      48.731617      2.3577398      156441.33      156893.98    
      5600   234.25472      6717832.7      6724.9433      48.731617      2.3577398      156351.73      156906.15    
      5700   216.40772      6712437.6      6724.9433      48.731617      2.3577398      156228.81      156741       
      5800   162.58318      6707783.5      6724.9433      48.731617      2.3577398      156135.6       156520.4     
      5900   158.75053      6705321.7      6724.9433      48.731617      2.3577398      156077.45      156453.17    
      6000   169.9179       6708190.7      6724.9433      48.731617      2.3577398      156142.68      156544.84    
      6100   221.19527      6712841.1      6724.9433      48.731617      2.3577398      156236.29      156759.8     
      6200   238.66974      6717008.7      6724.9433      48.731617      2.3577398      156331.14      156896.01    
      6300   226.91047      6715371.7      6724.9433      48.731617      2.3577398      156296.4       156833.45    
      6400   197.92024      6711262.2      6724.9433      48.731617      2.3577398      156206.79      156675.22    
      6500   177.25041      6707521.7      6724.9433      48.731617      2.3577398      156123.94      156543.45    
      6600   170.37569      6706678.9      6724.9433      48.731617      2.3577398      156107.22      156510.46    
      6700   183.90022      6708899        6724.9433      48.731617      2.3577398      156155.7       156590.95    
      6800   210.93176      6713022.5      6724.9433      48.731617      2.3577398      156245.59      156744.81    
      6900   228.38039      6716663.2      6724.9433      48.731617      2.3577398      156326.1       156866.62    
      7000   226.02723      6715716.8      6724.9433      48.731617      2.3577398      156304.06      156839.01    
      7100   201.56734      6710899        6724.9433      48.731617      2.3577398      156197.26      156674.32    
      7200   174.39576      6707861.9      6724.9433      48.731617      2.3577398      156134.11      156546.87    
      7300   174.88814      6706694.3      6724.9433      48.731617      2.3577398      156105.96      156519.88    
      7400   195.34077      6708263.9      6724.9433      48.731617      2.3577398      156135.28      156597.6     
      7500   208.26293      6712959.3      6724.9433      48.731617      2.3577398      156243.29      156736.2     
      7600   235.59557      6715064.5      6724.9433      48.731617      2.3577398      156285.58      156843.18    
      7700   215.87484      6714660.4      6724.9433      48.731617      2.3577398      156283.32      156794.25    
      7800   192.77083      6711361.1      6724.9433      48.731617      2.3577398      156211.58      156667.82    
      7900   189.17573      6707964        6724.9433      48.731617      2.3577398      156130.84      156578.57    
      8000   185.21529      6707316.3      6724.9433      48.731617      2.3577398      156115.71      156554.07    
      8100   190.23517      6709024.8      6724.9433      48.731617      2.3577398      156156.4       156606.65    
      8200   209.3575       6712144.7      6724.9433      48.731617      2.3577398      156224.55      156720.05    
      8300   216.19486      6713769.8      6724.9433      48.731617      2.3577398      156261.47      156773.15    
      8400   211.70813      6713473.8      6724.9433      48.731617      2.3577398      156255.38      156756.45    
      8500   204.44366      6711433.7      6724.9433      48.731617      2.3577398      156209.12      156692.99    
      8600   183.4456       6709586.8      6724.9433      48.731617      2.3577398      156172.06      156606.23    
      8700   179.82828      6708607.8      6724.9433      48.731617      2.3577398      156150.53      156576.14    
      8800   195.1988       6708998.7      6724.9433      48.731617      2.3577398      156153.26      156615.25    
      8900   195.51693      6712316.3      6724.9433      48.731617      2.3577398      156233.31      156696.05    
      9000   224.83018      6712893.8      6724.9433      48.731617      2.3577398      156237.12      156769.24    
      9100   214.09456      6713003.5      6724.9433      48.731617      2.3577398      156243.59      156750.3     
      9200   212.52767      6709846.4      6724.9433      48.731617      2.3577398      156167.17      156670.17    
      9300   183.50718      6708431.6      6724.9433      48.731617      2.3577398      156143.96      156578.28    
      9400   169.81212      6708503.9      6724.9433      48.731617      2.3577398      156151.38      156553.28    
      9500   197.22686      6709636.3      6724.9433      48.731617      2.3577398      156168.31      156635.1     
      9600   219.57719      6712570.2      6724.9433      48.731617      2.3577398      156230.52      156750.21    
      9700   219.7486       6714661        6724.9433      48.731617      2.3577398      156281.73      156801.82    
      9800   217.58833      6712562        6724.9433      48.731617      2.3577398      156231.17      156746.15    
      9900   195.17237      6709188.2      6724.9433      48.731617      2.3577398      156158.47      156620.4     
     10000   174.58563      6707821.1      6724.9433      48.731617      2.3577398      156133.41      156546.62    
     10100   183.00527      6708620        6724.9433      48.731617      2.3577398      156149.65      156582.78    
     10200   211.75235      6710462.1      6724.9433      48.731617      2.3577398      156182.46      156683.63    
     10300   222.57504      6712834.6      6724.9433      48.731617      2.3577398      156235.53      156762.32    
     10400   214.67594      6713022.6      6724.9433      48.731617      2.3577398      156243.98      156752.06    
     10500   192.91137      6711534.3      6724.9433      48.731617      2.3577398      156215.52      156672.1     
     10600   185.19171      6709881.7      6724.9433      48.731617      2.3577398      156178.3       156616.61    
     10700   189.88766      6709466.7      6724.9433      48.731617      2.3577398      156166.47      156615.88    
     10800   194.37278      6711259.6      6724.9433      48.731617      2.3577398      156208.4       156668.43    
     10900   210.21378      6712362        6724.9433      48.731617      2.3577398      156229.72      156727.25    
     11000   218.17077      6711363.9      6724.9433      48.731617      2.3577398      156202.34      156718.7     
     11100   201.78029      6709805        6724.9433      48.731617      2.3577398      156170.02      156647.58    
     11200   175.50679      6710467.3      6724.9433      48.731617      2.3577398      156196.52      156611.91    
     11300   193.69693      6710189.2      6724.9433      48.731617      2.3577398      156182.95      156641.38    
     11400   206.26136      6710946.9      6724.9433      48.731617      2.3577398      156196.73      156684.9     
     11500   208.37961      6711365.9      6724.9433      48.731617      2.3577398      156206.69      156699.88    
     11600   187.92792      6711473.3      6724.9433      48.731617      2.3577398      156215.73      156660.51    
     11700   183.02612      6711205.5      6724.9433      48.731617      2.3577398      156211.39      156644.57    
     11800   203.32457      6711022.4      6724.9433      48.731617      2.3577398      156199.76      156680.98    
     11900   212.40697      6711486.4      6724.9433      48.731617      2.3577398      156206.8       156709.52    
     12000   212.43737      6711155.1      6724.9433      48.731617      2.3577398      156199.36      156702.15    
     12100   205.4298       6709560        6724.9433      48.731617      2.3577398      156163.32      156649.53    
     12200   177.43671      6709527.7      6724.9433      48.731617      2.3577398      156173.83      156593.78    
     12300   193.24792      6709240.9      6724.9433      48.731617      2.3577398      156159.99      156617.36    
     12400   209.43743      6711285.9      6724.9433      48.731617      2.3577398      156202.7       156698.39    
     12500   220.57233      6712901.4      6724.9433      48.731617      2.3577398      156238.78      156760.83    
     12600   214.26971      6711877.6      6724.9433      48.731617      2.3577398      156215.37      156722.5     
     12700   196.41048      6709064.5      6724.9433      48.731617      2.3577398      156154.7       156619.56    
     12800   181.12792      6708172.9      6724.9433      48.731617      2.3577398      156138.61      156567.3     
     12900   185.74695      6709509.6      6724.9433      48.731617      2.3577398      156169.13      156608.74    
     13000   212.10129      6711934.1      6724.9433      48.731617      2.3577398      156218.53      156720.52    
     13100   226.2994       6713510.5      6724.9433      48.731617      2.3577398      156251.33      156786.93    
     13200   219.69229      6711239.4      6724.9433      48.731617      2.3577398      156198.43      156718.39    
     13300   179.41907      6709960.4      6724.9433      48.731617      2.3577398      156182.72      156607.36    
     13400   175.41985      6708403.7      6724.9433      48.731617      2.3577398      156146.75      156561.93    
     13500   185.20691      6709546.3      6724.9433      48.731617      2.3577398      156171.23      156609.57    
     13600   211.9237       6711757.2      6724.9433      48.731617      2.3577398      156213.43      156715       
     13700   226.77427      6712839.7      6724.9433      48.731617      2.3577398      156234.26      156770.98    
     13800   208.88101      6712037.4      6724.9433      48.731617      2.3577398      156221.56      156715.93    
     13900   184.53275      6710204.1      6724.9433      48.731617      2.3577398      156187.46      156624.21    
     14000   183.02096      6709005.7      6724.9433      48.731617      2.3577398      156158.59      156591.76    
     14100   195.37407      6710079.3      6724.9433      48.731617      2.3577398      156179.42      156641.82    
     14200   222.39936      6711145.4      6724.9433      48.731617      2.3577398      156195.57      156721.94    
     14300   219.22802      6711852.4      6724.9433      48.731617      2.3577398      156212.94      156731.8     
     14400   200.4805       6710592.4      6724.9433      48.731617      2.3577398      156190.42      156664.91    
     14500   172.43174      6710580.7      6724.9433      48.731617      2.3577398      156201.45      156609.56    
     14600   198.14314      6709438        6724.9433      48.731617      2.3577398      156162.8       156631.76    
     14700   202.75696      6711013.5      6724.9433      48.731617      2.3577398      156198.76      156678.64    
     14800   213.68268      6711416.7      6724.9433      48.731617      2.3577398      156205.78      156711.51    
     14900   205.21642      6711255.9      6724.9433      48.731617      2.3577398      156204.54      156690.23    
     15000   190.91276      6710640.7      6724.9433      48.731617      2.3577398      156195.09      156646.93    
     15100   188.16208      6710307.6      6724.9433      48.731617      2.3577398      156188.34      156633.68    
     15200   192.26459      6711337.4      6724.9433      48.731617      2.3577398      156210.38      156665.42    
     15300   209.99408      6711820.2      6724.9433      48.731617      2.3577398      156216.4       156713.4     
     15400   207.25934      6711845.2      6724.9433      48.731617      2.3577398      156218.67      156709.2     
     15500   195.58796      6710615.5      6724.9433      48.731617      2.3577398      156192.48      156655.39    
     15600   188.78464      6709533.5      6724.9433      48.731617      2.3577398      156169         156615.81    
     15700   189.70269      6709791.3      6724.9433      48.731617      2.3577398      156174.47      156623.45    
     15800   203.86453      6710740.3      6724.9433      48.731617      2.3577398      156192.86      156675.36    
     15900   215.18567      6712061.9      6724.9433      48.731617      2.3577398      156220.09      156729.38    
     16000   212.72605      6711638        6724.9433      48.731617      2.3577398      156211.05      156714.52    
     16100   193.86864      6710791.9      6724.9433      48.731617      2.3577398      156197.45      156656.29    
     16200   189.1352       6709530.3      6724.9433      48.731617      2.3577398      156168.58      156616.22    
     16300   183.80184      6710137.1      6724.9433      48.731617      2.3577398      156185.29      156620.31    
     16400   196.67375      6711235.8      6724.9433      48.731617      2.3577398      156207.72      156673.2     
     16500   211.4488       6712127.4      6724.9433      48.731617      2.3577398      156222.79      156723.24    
     16600   215.04601      6711677.3      6724.9433      48.731617      2.3577398      156210.74      156719.7     
     16700   191.37991      6711307.8      6724.9433      48.731617      2.3577398      156211.21      156664.16    
     16800   198.28391      6708956.3      6724.9433      48.731617      2.3577398      156151.32      156620.61    
     16900   190.2025       6709179        6724.9433      48.731617      2.3577398      156160.25      156610.41    
     17000   201.83682      6709952.2      6724.9433      48.731617      2.3577398      156174.43      156652.13    
     17100   210.12484      6711834.7      6724.9433      48.731617      2.3577398      156216.82      156714.13    
     17200   213.51034      6712179.5      6724.9433      48.731617      2.3577398      156223.47      156728.8     
     17300   213.3073       6710849.3      6724.9433      48.731617      2.3577398      156191.73      156696.58    
     17400   192.29779      6710131.5      6724.9433      48.731617      2.3577398      156181.78      156636.9     
     17500   186.70703      6709272.3      6724.9433      48.731617      2.3577398      156164.01      156605.9     
     17600   182.17123      6710428.3      6724.9433      48.731617      2.3577398      156193.25      156624.4     
     17700   203.89648      6711468.1      6724.9433      48.731617      2.3577398      156210.01      156692.58    
     17800   214.53415      6712468.9      6724.9433      48.731617      2.3577398      156230.32      156738.07    
     17900   205.86053      6711941.2      6724.9433      48.731617      2.3577398      156219.78      156707.01    
     18000   194.32099      6710048.5      6724.9433      48.731617      2.3577398      156179.71      156639.63    
     18100   180.88324      6709528        6724.9433      48.731617      2.3577398      156171.97      156600.08    
     18200   189.04891      6710028.1      6724.9433      48.731617      2.3577398      156180.85      156628.28    
     18300   214.80995      6710923.4      6724.9433      48.731617      2.3577398      156192.03      156700.44    
     18400   209.52821      6712642.1      6724.9433      48.731617      2.3577398      156235.8       156731.7     
     18500   216.06077      6710825.2      6724.9433      48.731617      2.3577398      156190.53      156701.89    
     18600   195.1501       6709860.2      6724.9433      48.731617      2.3577398      156174.4       156636.27    
     18700   179.37641      6710025.8      6724.9433      48.731617      2.3577398      156184.84      156609.38    
     18800   201.89673      6709773.7      6724.9433      48.731617      2.3577398      156169.64      156647.48    
     18900   208.54127      6711392.6      6724.9433      48.731617      2.3577398      156206.16      156699.73    
     19000   219.78516      6710828.2      6724.9433      48.731617      2.3577398      156188.6       156708.78    
     19100   201.77935      6710626.5      6724.9433      48.731617      2.3577398      156190.93      156668.49    
     19200   191.15878      6710245.7      6724.9433      48.731617      2.3577398      156185.49      156637.92    
     19300   194.5643       6710598.7      6724.9433      48.731617      2.3577398      156192.73      156653.21    
     19400   204.80479      6711021.3      6724.9433      48.731617      2.3577398      156199.25      156683.97    
     19500   202.56054      6711334.9      6724.9433      48.731617      2.3577398      156207.51      156686.92    
     19600   195.57688      6710857.6      6724.9433      48.731617      2.3577398      156199.02      156661.9     
     19700   198.1198       6709813.9      6724.9433      48.731617      2.3577398      156172.45      156641.35    
     19800   194.51162      6710672.8      6724.9433      48.731617      2.3577398      156194.01      156654.37    
     19900   205.23107      6711412.3      6724.9433      48.731617      2.3577398      156208.5       156694.23    
     20000   214.60569      6711191.7      6724.9433      48.731617      2.3577398      156198.93      156706.85    
     20100   206.19412      6710349        6724.9433      48.731617      2.3577398      156181.64      156669.65    
     20200   191.99857      6709703        6724.9433      48.731617      2.3577398      156171.61      156626.03    
     20300   190.49731      6709617.7      6724.9433      48.731617      2.3577398      156170.58      156621.44    
     20400   200.24402      6710963.6      6724.9433      48.731617      2.3577398      156199.59      156673.52    
     20500   212.91831      6712179.2      6724.9433      48.731617      2.3577398      156223.46      156727.39    
     20600   211.09931      6711809.6      6724.9433      48.731617      2.3577398      156215.79      156715.41    
     20700   198.60811      6710043.7      6724.9433      48.731617      2.3577398      156177.29      156647.35    
     20800   183.42167      6709464.6      6724.9433      48.731617      2.3577398      156169.67      156603.78    
     20900   187.87537      6709934.8      6724.9433      48.731617      2.3577398      156179.48      156624.13    
     21000   209.00658      6711122.5      6724.9433      48.731617      2.3577398      156200.07      156694.74    
     21100   217.00418      6712108.5      6724.9433      48.731617      2.3577398      156220.12      156733.72    
     21200   202.69818      6711839.2      6724.9433      48.731617      2.3577398      156219.06      156698.8     
     21300   195.36394      6710051        6724.9433      48.731617      2.3577398      156179         156641.38    
     21400   181.85218      6709991.1      6724.9433      48.731617      2.3577398      156183.32      156613.72    
     21500   192.35586      6710394.5      6724.9433      48.731617      2.3577398      156188.48      156643.74    
     21600   208.12741      6711023.2      6724.9433      48.731617      2.3577398      156198.1       156690.69    
     21700   207.71771      6711537.1      6724.9433      48.731617      2.3577398      156210.69      156702.31    
     21800   203.22653      6711081.4      6724.9433      48.731617      2.3577398      156199.88      156680.87    
     21900   195.63055      6710637.1      6724.9433      48.731617      2.3577398      156193.81      156656.82    
     22000   191.96475      6710972.7      6724.9433      48.731617      2.3577398      156202.86      156657.2     
     22100   198.11987      6710790.3      6724.9433      48.731617      2.3577398      156196.06      156664.96    
     22200   190.42876      6710983.6      6724.9433      48.731617      2.3577398      156203.89      156654.59    
     22300   192.4153       6710780.2      6724.9433      48.731617      2.3577398      156197.57      156652.97    
     22400   200.5316       6711082.5      6724.9433      48.731617      2.3577398      156202.45      156677.06    
     22500   195.97657      6712481.8      6724.9433      48.731617      2.3577398      156238.8       156702.63    
     22600   214.34725      6711052.5      6724.9433      48.731617      2.3577398      156195.9       156703.21    
     22700   194.40445      6710692        6724.9433      48.731617      2.3577398      156194.74      156654.84    
     22800   193.37407      6709148        6724.9433      48.731617      2.3577398      156158.39      156616.06    
     22900   192.12614      6709459.7      6724.9433      48.731617      2.3577398      156166.76      156621.48    
     23000   196.51533      6711435.4      6724.9433      48.731617      2.3577398      156212.2       156677.31    
     23100   221.62895      6711828.6      6724.9433      48.731617      2.3577398      156211.64      156736.18    
     23200   215.02781      6711793.9      6724.9433      48.731617      2.3577398      156213.29      156722.21    
     23300   203.42618      6709843.2      6724.9433      48.731617      2.3577398      156170.49      156651.96    
     23400   180.85637      6709451.3      6724.9433      48.731617      2.3577398      156170.83      156598.88    
     23500   186.42623      6709693.6      6724.9433      48.731617      2.3577398      156173.55      156614.77    
     23600   207.42754      6710847.6      6724.9433      48.731617      2.3577398      156193.61      156684.54    
     23700   213.92816      6712409.5      6724.9433      48.731617      2.3577398      156229.88      156736.19    
     23800   210.35549      6711722.2      6724.9433      48.731617      2.3577398      156214.28      156712.14    
     23900   190.36151      6710770.3      6724.9433      48.731617      2.3577398      156198.81      156649.35    
     24000   184.61197      6709786.5      6724.9433      48.731617      2.3577398      156176.17      156613.11    
     24100   185.94904      6710344.2      6724.9433      48.731617      2.3577398      156189.3       156629.4     
     24200   199.88584      6711170.5      6724.9433      48.731617      2.3577398      156204.82      156677.9     
     24300   211.31433      6711644.1      6724.9433      48.731617      2.3577398      156211.94      156712.07    
     24400   200.27454      6711771.1      6724.9433      48.731617      2.3577398      156219.38      156693.39    
     24500   197.67752      6710824.8      6724.9433      48.731617      2.3577398      156196.5       156664.36    
     24600   197.13615      6710274.1      6724.9433      48.731617      2.3577398      156184.16      156650.73    
     24700   196.77797      6710515.3      6724.9433      48.731617      2.3577398      156190.43      156656.16    
     24800   204.48001      6710412.9      6724.9433      48.731617      2.3577398      156184.56      156668.52    
     24900   197.034        6710901        6724.9433      48.731617      2.3577398      156199.06      156665.39    
     25000   197.46561      6710856.8      6724.9433      48.731617      2.3577398      156197.56      156664.91    
     25100   200.98605      6710950.6      6724.9433      48.731617      2.3577398      156199.02      156674.7     
     25200   205.97142      6711003.8      6724.9433      48.731617      2.3577398      156197.74      156685.22    
     25300   200.40698      6711194.9      6724.9433      48.731617      2.3577398      156204.84      156679.16    
     25400   196.0369       6710465.5      6724.9433      48.731617      2.3577398      156189.01      156652.98    
     25500   188.60921      6710566.8      6724.9433      48.731617      2.3577398      156194.76      156641.15    
     25600   200.81302      6710265.8      6724.9433      48.731617      2.3577398      156182.15      156657.43    
     25700   203.02135      6711387.3      6724.9433      48.731617      2.3577398      156208.37      156688.87    
     25800   212.73324      6711180.8      6724.9433      48.731617      2.3577398      156199.71      156703.2     
     25900   201.20748      6711067.8      6724.9433      48.731617      2.3577398      156201.08      156677.29    
     26000   197.29898      6710063.9      6724.9433      48.731617      2.3577398      156178.66      156645.62    
     26100   198.60775      6709551.9      6724.9433      48.731617      2.3577398      156165.53      156635.59    
     26200   192.74584      6710950.8      6724.9433      48.731617      2.3577398      156201.82      156658       
     26300   207.55268      6710874.1      6724.9433      48.731617      2.3577398      156194.1       156685.33    
     26400   207.49441      6710971.2      6724.9433      48.731617      2.3577398      156196.38      156687.47    
     26500   197.78255      6711229.5      6724.9433      48.731617      2.3577398      156206.69      156674.8     
     26600   199.0973       6710822        6724.9433      48.731617      2.3577398      156196.23      156667.45    
     26700   193.78072      6711400.6      6724.9433      48.731617      2.3577398      156212.43      156671.06    
     26800   202.93491      6710583.1      6724.9433      48.731617      2.3577398      156188.6       156668.9     
     26900   203.87728      6709876        6724.9433      48.731617      2.3577398      156172.23      156654.76    
     27000   194.90664      6710244.3      6724.9433      48.731617      2.3577398      156183.94      156645.24    
     27100   190.82183      6711316.6      6724.9433      48.731617      2.3577398      156211.62      156663.25    
     27200   209.95826      6711267.6      6724.9433      48.731617      2.3577398      156203.07      156700       
     27300   222.27492      6710717        6724.9433      48.731617      2.3577398      156184.12      156710.19    
     27400   200.00509      6710487.7      6724.9433      48.731617      2.3577398      156188.23      156661.59    
     27500   189.50012      6709307        6724.9433      48.731617      2.3577398      156163.24      156611.74    
     27600   181.43059      6710169.8      6724.9433      48.731617      2.3577398      156187.12      156616.53    
     27700   207.25565      6710789.1      6724.9433      48.731617      2.3577398      156191.88      156682.41    
     27800   215.54139      6712852.7      6724.9433      48.731617      2.3577398      156239.47      156749.6     
     27900   213.39903      6711968.2      6724.9433      48.731617      2.3577398      156218.73      156723.8     
     28000   194.59467      6709894.2      6724.9433      48.731617      2.3577398      156175.5       156636.06    
     28100   183.98953      6708366.3      6724.9433      48.731617      2.3577398      156142.82      156578.28    
     28200   177.81603      6710121.4      6724.9433      48.731617      2.3577398      156187.68      156608.53    
     28300   211.15877      6711513.9      6724.9433      48.731617      2.3577398      156208.38      156708.15    
     28400   233.16783      6712208.5      6724.9433      48.731617      2.3577398      156217.06      156768.92    
     28500   213.50743      6711443.2      6724.9433      48.731617      2.3577398      156205.54      156710.86    
     28600   178.72817      6710199.4      6724.9433      48.731617      2.3577398      156189.26      156612.27    
     28700   172.73552      6709376.7      6724.9433      48.731617      2.3577398      156171         156579.82    
     28800   196.0157       6709762.5      6724.9433      48.731617      2.3577398      156171.81      156635.73    
     28900   214.23008      6711828.8      6724.9433      48.731617      2.3577398      156214.83      156721.86    
     29000   221.28882      6712227.7      6724.9433      48.731617      2.3577398      156222.24      156745.98    
     29100   198.25668      6711514.7      6724.9433      48.731617      2.3577398      156213.49      156682.72    
     29200   178.54781      6710479.7      6724.9433      48.731617      2.3577398      156195.36      156617.94    
     29300   185.13207      6709536.6      6724.9433      48.731617      2.3577398      156171.33      156609.49    
     29400   198.2876       6710481.5      6724.9433      48.731617      2.3577398      156188.55      156657.85    
     29500   217.38         6711130.2      6724.9433      48.731617      2.3577398      156196.83      156711.31    
     29600   201.16317      6712298.1      6724.9433      48.731617      2.3577398      156231.22      156707.33    
     29700   192.20395      6711260.6      6724.9433      48.731617      2.3577398      156208.79      156663.7     
     29800   188.60411      6710589.7      6724.9433      48.731617      2.3577398      156194.53      156640.91    
     29900   199.44516      6710283.3      6724.9433      48.731617      2.3577398      156183.37      156655.41    
     30000   206.03663      6710949.1      6724.9433      48.731617      2.3577398      156197.01      156684.65    
     30100   200.1988       6711360        6724.9433      48.731617      2.3577398      156208.67      156682.5     
     30200   196.092        6710784.5      6724.9433      48.731617      2.3577398      156196.4       156660.51    
     30300   196.43683      6710309.7      6724.9433      48.731617      2.3577398      156184.25      156649.17    
     30400   199.67669      6710372.5      6724.9433      48.731617      2.3577398      156186.15      156658.74    
     30500   208.09037      6710902.1      6724.9433      48.731617      2.3577398      156194.74      156687.24    
     30600   209.11413      6711064.9      6724.9433      48.731617      2.3577398      156197.91      156692.83    
     30700   193.49094      6711286.8      6724.9433      48.731617      2.3577398      156209.05      156667       
     30800   188.75322      6710556.5      6724.9433      48.731617      2.3577398      156193.7       156640.44    
     30900   187.16815      6710763.9      6724.9433      48.731617      2.3577398      156199.64      156642.62    
     31000   207.97475      6710411.6      6724.9433      48.731617      2.3577398      156183.52      156675.75    
     31100   205.12611      6711678.4      6724.9433      48.731617      2.3577398      156214.19      156699.68    
     31200   197.55233      6712012.7      6724.9433      48.731617      2.3577398      156225.22      156692.78    
     31300   194.21182      6710911.2      6724.9433      48.731617      2.3577398      156199.89      156659.54    
     31400   190.0419       6710268.6      6724.9433      48.731617      2.3577398      156186.78      156636.56    
     31500   195.89959      6710156.5      6724.9433      48.731617      2.3577398      156181.4       156645.04    
     31600   195.92916      6711233.7      6724.9433      48.731617      2.3577398      156207.47      156671.19    
     31700   197.36803      6711989.4      6724.9433      48.731617      2.3577398      156225.03      156692.15    
     31800   200.51385      6711671.2      6724.9433      48.731617      2.3577398      156216.81      156691.38    
     31900   200.0592       6710934.4      6724.9433      48.731617      2.3577398      156198.38      156671.87    
     32000   198.8907       6710436.7      6724.9433      48.731617      2.3577398      156186.29      156657.02    
     32100   194.49215      6710308.3      6724.9433      48.731617      2.3577398      156185.56      156645.88    
     32200   197.64765      6710252.9      6724.9433      48.731617      2.3577398      156182.99      156650.77    
     32300   199.46488      6710864.2      6724.9433      48.731617      2.3577398      156197.58      156669.67    
     32400   202.55202      6711561.6      6724.9433      48.731617      2.3577398      156213.29      156692.68    
     32500   200.17031      6712007.2      6724.9433      48.731617      2.3577398      156224.63      156698.38    
     32600   200.74531      6710940.4      6724.9433      48.731617      2.3577398      156198.44      156673.56    
     32700   198.60037      6709796.4      6724.9433      48.731617      2.3577398      156171.41      156641.45    
     32800   188.53022      6709958.4      6724.9433      48.731617      2.3577398      156180.3       156626.51    
     32900   188.79672      6710932.7      6724.9433      48.731617      2.3577398      156202.46      156649.29    
     33000   203.38205      6711955.2      6724.9433      48.731617      2.3577398      156221.71      156703.07    
     33100   220.3204       6711630.6      6724.9433      48.731617      2.3577398      156207.28      156728.73    
     33200   204.91775      6710982.9      6724.9433      48.731617      2.3577398      156198.3       156683.29    
     33300   186.7132       6709955.8      6724.9433      48.731617      2.3577398      156180.25      156622.16    
     33400   182.17486      6709653.7      6724.9433      48.731617      2.3577398      156174.6       156605.77    
     33500   196.47401      6710456.8      6724.9433      48.731617      2.3577398      156188.64      156653.65    
     33600   210.66977      6712011.4      6724.9433      48.731617      2.3577398      156220.57      156719.18    
     33700   212.27942      6712239        6724.9433      48.731617      2.3577398      156225.81      156728.22    
     33800   202.78213      6710780.9      6724.9433      48.731617      2.3577398      156193.96      156673.9     
     33900   185.55042      6709858.1      6724.9433      48.731617      2.3577398      156178.17      156617.32    
     34000   188.84132      6709447        6724.9433      48.731617      2.3577398      156166.74      156613.68    
     34100   199.51232      6710648.1      6724.9433      48.731617      2.3577398      156191.96      156664.15    
     34200   212.76223      6712025.5      6724.9433      48.731617      2.3577398      156220.66      156724.22    
     34300   208.22275      6711995.2      6724.9433      48.731617      2.3577398      156220.7       156713.52    
     34400   194.84063      6710691.2      6724.9433      48.731617      2.3577398      156195.07      156656.21    
     34500   199.11213      6708930.9      6724.9433      48.731617      2.3577398      156150.33      156621.58    
     34600   198.08195      6709660.9      6724.9433      48.731617      2.3577398      156168.57      156637.38    
     34700   206.99126      6710636.5      6724.9433      48.731617      2.3577398      156188.71      156678.61    
     34800   217.10144      6710715.1      6724.9433      48.731617      2.3577398      156185.88      156699.71    
     34900   199.71732      6711587.6      6724.9433      48.731617      2.3577398      156214.66      156687.35    
     35000   199.29521      6710569.2      6724.9433      48.731617      2.3577398      156190.11      156661.79    
     35100   199.05142      6710064.8      6724.9433      48.731617      2.3577398      156178.07      156649.18    
     35200   210.12085      6709865.4      6724.9433      48.731617      2.3577398      156168.59      156665.89    
     35300   201.93275      6710827.9      6724.9433      48.731617      2.3577398      156195.43      156673.35    
     35400   196.78584      6710965        6724.9433      48.731617      2.3577398      156200.92      156666.66    
     35500   199.4671       6710571.7      6724.9433      48.731617      2.3577398      156189.89      156661.98    
     35600   194.68467      6711087.6      6724.9433      48.731617      2.3577398      156204.74      156665.52    
     35700   200.16427      6711370.8      6724.9433      48.731617      2.3577398      156208.4       156682.14    
     35800   202.09077      6711177.9      6724.9433      48.731617      2.3577398      156203.98      156682.28    
     35900   191.66266      6711120.9      6724.9433      48.731617      2.3577398      156206.18      156659.8     
     36000   196.11671      6710157.1      6724.9433      48.731617      2.3577398      156182.05      156646.22    
     36100   193.92733      6710660.6      6724.9433      48.731617      2.3577398      156193.77      156652.75    
     36200   199.74929      6711281.1      6724.9433      48.731617      2.3577398      156207.07      156679.83    
     36300   207.0755       6711435.5      6724.9433      48.731617      2.3577398      156208.73      156698.83    
     36400   210.00267      6710681.9      6724.9433      48.731617      2.3577398      156188.87      156685.9     
     36500   187.25688      6711012.5      6724.9433      48.731617      2.3577398      156205.6       156648.8     
     36600   192.70459      6710080.4      6724.9433      48.731617      2.3577398      156180.38      156636.47    
     36700   200.32547      6710199.1      6724.9433      48.731617      2.3577398      156181.38      156655.5     
     36800   202.62725      6711247.2      6724.9433      48.731617      2.3577398      156204.96      156684.53    
     36900   204.53541      6711536.7      6724.9433      48.731617      2.3577398      156210.7       156694.78    
     37000   197.04111      6711405.1      6724.9433      48.731617      2.3577398      156211.29      156677.64    
     37100   196.22591      6710611.3      6724.9433      48.731617      2.3577398      156192.76      156657.18    
     37200   199.84473      6710141.7      6724.9433      48.731617      2.3577398      156179.74      156652.72    
     37300   196.15456      6710806.6      6724.9433      48.731617      2.3577398      156196.75      156661       
     37400   190.45836      6711667.7      6724.9433      48.731617      2.3577398      156220.72      156671.49    
     37500   201.85884      6710859.3      6724.9433      48.731617      2.3577398      156195.97      156673.73    
     37600   200.03875      6710751.1      6724.9433      48.731617      2.3577398      156193.93      156667.38    
     37700   201.6332       6710943.9      6724.9433      48.731617      2.3577398      156198.71      156675.92    
     37800   203.56835      6711057        6724.9433      48.731617      2.3577398      156200.58      156682.38    
     37900   201.62617      6710734.8      6724.9433      48.731617      2.3577398      156193.49      156670.69    
     38000   195.71116      6710251.8      6724.9433      48.731617      2.3577398      156182.56      156645.77    
     38100   192.03309      6710263.2      6724.9433      48.731617      2.3577398      156184.78      156639.28    
     38200   193.75112      6711219.8      6724.9433      48.731617      2.3577398      156208.21      156666.77    
     38300   203.78762      6711839.2      6724.9433      48.731617      2.3577398      156219.71      156702.03    
     38400   202.60244      6712203.6      6724.9433      48.731617      2.3577398      156228.07      156707.58    
     38500   201.33673      6710711.1      6724.9433      48.731617      2.3577398      156192.05      156668.57    
     38600   187.12003      6709936.4      6724.9433      48.731617      2.3577398      156179.78      156622.65    
     38700   185.47829      6709907        6724.9433      48.731617      2.3577398      156179.6       156618.59    
     38800   200.79716      6710657.9      6724.9433      48.731617      2.3577398      156192.52      156667.75    
     38900   212.54264      6712086.3      6724.9433      48.731617      2.3577398      156221.49      156724.53    
     39000   215.64244      6711685.3      6724.9433      48.731617      2.3577398      156210.82      156721.2     
     39100   196.31842      6710804.2      6724.9433      48.731617      2.3577398      156197.47      156662.11    
     39200   187.67044      6709464.6      6724.9433      48.731617      2.3577398      156167.74      156611.91    
     39300   187.09901      6709743        6724.9433      48.731617      2.3577398      156175.39      156618.21    
     39400   199.97273      6711151.7      6724.9433      48.731617      2.3577398      156203.92      156677.21    
     39500   209.66383      6712374.2      6724.9433      48.731617      2.3577398      156229.48      156725.71    
     39600   209.793        6711785.3      6724.9433      48.731617      2.3577398      156214.92      156711.45    
     39700   205.99327      6709848.9      6724.9433      48.731617      2.3577398      156170.45      156657.99    
     39800   188.68028      6709578        6724.9433      48.731617      2.3577398      156170.29      156616.85    
     39900   190.97866      6709796.2      6724.9433      48.731617      2.3577398      156174.32      156626.32    
     40000   201.304        6710901.6      6724.9433      48.731617      2.3577398      156197.35      156673.79    
     40100   212.02314      6711694.4      6724.9433      48.731617      2.3577398      156212.13      156713.94    
     40200   206.64267      6711895.2      6724.9433      48.731617      2.3577398      156219.95      156709.03    
     40300   192.302        6711315        6724.9433      48.731617      2.3577398      156211.02      156666.16    
     40400   188.60282      6710214.6      6724.9433      48.731617      2.3577398      156185.8       156632.18    
     40500   196.32836      6709652.7      6724.9433      48.731617      2.3577398      156169.35      156634.01    
     40600   200.69766      6710456.1      6724.9433      48.731617      2.3577398      156186.62      156661.63    
     40700   197.21161      6711927.2      6724.9433      48.731617      2.3577398      156223.36      156690.11    
     40800   202.8812       6711836.5      6724.9433      48.731617      2.3577398      156219.73      156699.9     
     40900   203.99647      6711119        6724.9433      48.731617      2.3577398      156201.33      156684.14    
     41000   197.67282      6710523.3      6724.9433      48.731617      2.3577398      156189.91      156657.75    
     41100   200.65649      6709370.8      6724.9433      48.731617      2.3577398      156161.01      156635.91    
     41200   187.12856      6710741.6      6724.9433      48.731617      2.3577398      156198.27      156641.16    
     41300   201.61027      6710804.3      6724.9433      48.731617      2.3577398      156195.3       156672.46    
     41400   209.1447       6711484.9      6724.9433      48.731617      2.3577398      156209.03      156704.03    
     41500   203.86445      6711759        6724.9433      48.731617      2.3577398      156217.19      156699.69    
     41600   197.33725      6711018.1      6724.9433      48.731617      2.3577398      156201.58      156668.63    
     41700   193.348        6710032        6724.9433      48.731617      2.3577398      156178.96      156636.57    
     41800   188.05738      6710134.1      6724.9433      48.731617      2.3577398      156183.8       156628.89    
     41900   203.67773      6710125        6724.9433      48.731617      2.3577398      156177.93      156659.99    
     42000   200.13641      6712088.1      6724.9433      48.731617      2.3577398      156226.67      156700.35    
     42100   208.31867      6711819.7      6724.9433      48.731617      2.3577398      156217.2       156710.25    
     42200   206.60152      6710445.4      6724.9433      48.731617      2.3577398      156184.31      156673.28    
     42300   192.3832       6710070.4      6724.9433      48.731617      2.3577398      156180.96      156636.29    
     42400   189.91648      6710186        6724.9433      48.731617      2.3577398      156184.51      156633.99    
     42500   203.93131      6710310.4      6724.9433      48.731617      2.3577398      156181.77      156664.43    
     42600   202.889        6711691.1      6724.9433      48.731617      2.3577398      156215.69      156695.88    
     42700   201.80743      6711701.4      6724.9433      48.731617      2.3577398      156217.4       156695.03    
     42800   199.48866      6710806.8      6724.9433      48.731617      2.3577398      156195.61      156667.76    
     42900   197.63226      6710154.7      6724.9433      48.731617      2.3577398      156180.42      156648.17    
     43000   191.15037      6710663.4      6724.9433      48.731617      2.3577398      156195.41      156647.82    
     43100   208.7658       6710090.8      6724.9433      48.731617      2.3577398      156174.59      156668.69    
     43200   206.81275      6710813.7      6724.9433      48.731617      2.3577398      156193.46      156682.94    
     43300   205.18783      6710800.7      6724.9433      48.731617      2.3577398      156193.62      156679.25    
     43400   201.18607      6710583.9      6724.9433      48.731617      2.3577398      156189.28      156665.44    
     43500   199.42138      6710596.2      6724.9433      48.731617      2.3577398      156190.45      156662.43    
     43600   196.38777      6711178.3      6724.9433      48.731617      2.3577398      156205.86      156670.66    
     43700   202.75105      6710752.5      6724.9433      48.731617      2.3577398      156193.81      156673.68    
     43800   201.43428      6710463.5      6724.9433      48.731617      2.3577398      156186.57      156663.31    
     43900   196.61948      6710449.9      6724.9433      48.731617      2.3577398      156188.15      156653.5     
     44000   197.63007      6710667.4      6724.9433      48.731617      2.3577398      156192.96      156660.71    
     44100   201.54688      6711221.2      6724.9433      48.731617      2.3577398      156205.14      156682.15    
     44200   203.81937      6711304.3      6724.9433      48.731617      2.3577398      156207.07      156689.46    
     44300   204.03443      6710608.9      6724.9433      48.731617      2.3577398      156189.17      156672.07    
     44400   196.13995      6710339.4      6724.9433      48.731617      2.3577398      156186.28      156650.5     
     44500   199.3153       6709885.6      6724.9433      48.731617      2.3577398      156173.04      156644.77    
     44600   200.38728      6710505        6724.9433      48.731617      2.3577398      156187.8       156662.07    
     44700   210.56445      6710831.5      6724.9433      48.731617      2.3577398      156192.16      156690.51    
     44800   211.74879      6711169.6      6724.9433      48.731617      2.3577398      156199.24      156700.4     
     44900   203.43077      6710777.5      6724.9433      48.731617      2.3577398      156193.68      156675.15    
     45000   193.91662      6710095.9      6724.9433      48.731617      2.3577398      156181.05      156640       
     45100   192.43299      6709758.2      6724.9433      48.731617      2.3577398      156173.97      156629.41    
     45200   199.20969      6710428.8      6724.9433      48.731617      2.3577398      156186.26      156657.74    
     45300   203.86609      6711662.9      6724.9433      48.731617      2.3577398      156215.57      156698.07    
     45400   202.78737      6712112.6      6724.9433      48.731617      2.3577398      156226.36      156706.31    
     45500   201.00912      6711226.1      6724.9433      48.731617      2.3577398      156205.48      156681.22    
     45600   187.72706      6710887.6      6724.9433      48.731617      2.3577398      156202.14      156646.45    
     45700   189.84388      6710030.3      6724.9433      48.731617      2.3577398      156180.66      156629.97    
     45800   190.99888      6710687.3      6724.9433      48.731617      2.3577398      156196.09      156648.14    
     45900   202.56319      6711290.7      6724.9433      48.731617      2.3577398      156206.56      156685.98    
     46000   205.29142      6711905.6      6724.9433      48.731617      2.3577398      156220.25      156706.12    
     46100   202.60944      6711557.7      6724.9433      48.731617      2.3577398      156212.81      156692.34    
     46200   195.71892      6710516.8      6724.9433      48.731617      2.3577398      156190.46      156653.68    
     46300   187.67831      6710111.8      6724.9433      48.731617      2.3577398      156184.17      156628.36    
     46400   196.69893      6709877.7      6724.9433      48.731617      2.3577398      156174.6       156640.14    
     46500   199.4974       6711095.7      6724.9433      48.731617      2.3577398      156202.9       156675.07    
     46600   201.91115      6712192        6724.9433      48.731617      2.3577398      156228.8       156706.67    
     46700   209.5461       6711676.3      6724.9433      48.731617      2.3577398      156212.64      156708.59    
     46800   202.01754      6710619.5      6724.9433      48.731617      2.3577398      156190.43      156668.56    
     46900   187.24561      6710152        6724.9433      48.731617      2.3577398      156184.66      156627.83    
     47000   190.63047      6709700.1      6724.9433      48.731617      2.3577398      156172.35      156623.53    
     47100   195.55309      6710732.4      6724.9433      48.731617      2.3577398      156195.44      156658.27    
     47200   216.66149      6711023.4      6724.9433      48.731617      2.3577398      156194.08      156706.87    
     47300   213.71189      6711677.5      6724.9433      48.731617      2.3577398      156212.1       156717.9     
     47400   196.87731      6711431.7      6724.9433      48.731617      2.3577398      156211.61      156677.57    
     47500   193.23274      6709702.8      6724.9433      48.731617      2.3577398      156171.44      156628.78    
     47600   193.40209      6709307.8      6724.9433      48.731617      2.3577398      156162.03      156619.77    
     47700   193.7296       6710910.2      6724.9433      48.731617      2.3577398      156200.12      156658.63    
     47800   203.6843       6712035.4      6724.9433      48.731617      2.3577398      156223.97      156706.04    
     47900   209.28712      6711987.8      6724.9433      48.731617      2.3577398      156220.29      156715.62    
     48000   205.55541      6710839.3      6724.9433      48.731617      2.3577398      156193.99      156680.49    
     48100   198.26526      6709595.5      6724.9433      48.731617      2.3577398      156167.03      156636.28    
     48200   182.60403      6710221.7      6724.9433      48.731617      2.3577398      156188.05      156620.23    
     48300   204.83814      6709675.6      6724.9433      48.731617      2.3577398      156166.69      156651.49    
     48400   201.63564      6711737.2      6724.9433      48.731617      2.3577398      156217.46      156694.68    
     48500   210.32234      6711707.8      6724.9433      48.731617      2.3577398      156213.26      156711.05    
     48600   190.62788      6712207.9      6724.9433      48.731617      2.3577398      156233.53      156684.7     
     48700   190.96056      6710796.3      6724.9433      48.731617      2.3577398      156198.99      156650.95    
     48800   190.44865      6710322.9      6724.9433      48.731617      2.3577398      156188.3       156639.04    
     48900   198.35704      6710247.8      6724.9433      48.731617      2.3577398      156182.73      156652.2     
     49000   207.86592      6710425.3      6724.9433      48.731617      2.3577398      156182.99      156674.96    
     49100   204.68359      6711358.1      6724.9433      48.731617      2.3577398      156207.34      156691.78    
     49200   207.97701      6710988.6      6724.9433      48.731617      2.3577398      156196.5       156688.73    
     49300   206.54584      6710168.6      6724.9433      48.731617      2.3577398      156177.26      156666.11    
     49400   199.90332      6709865.2      6724.9433      48.731617      2.3577398      156173.15      156646.27    
     49500   192.96127      6710504.1      6724.9433      48.731617      2.3577398      156191.4       156648.09    
     49600   202.62389      6710496.6      6724.9433      48.731617      2.3577398      156186.48      156666.04    
     49700   197.50004      6711647.4      6724.9433      48.731617      2.3577398      156217.53      156684.96    
     49800   207.76791      6711111.6      6724.9433      48.731617      2.3577398      156199.76      156691.5     
     49900   204.17225      6710761.7      6724.9433      48.731617      2.3577398      156192.99      156676.21    
     50000   194.91975      6710597.9      6724.9433      48.731617      2.3577398      156192.63      156653.96    
     50100   196.10385      6710126        6724.9433      48.731617      2.3577398      156180.38      156644.51    
     50200   199.45166      6710392.5      6724.9433      48.731617      2.3577398      156185.49      156657.54    
     50300   196.24182      6711625.8      6724.9433      48.731617      2.3577398      156216.9       156681.36    
     50400   201.99474      6711516.8      6724.9433      48.731617      2.3577398      156211.9       156689.98    
     50500   205.62417      6710605.5      6724.9433      48.731617      2.3577398      156188.46      156675.13    
     50600   187.42681      6711190.4      6724.9433      48.731617      2.3577398      156209.9       156653.5     
     50700   200.56784      6710016.6      6724.9433      48.731617      2.3577398      156176.42      156651.12    
     50800   198.68197      6710810.3      6724.9433      48.731617      2.3577398      156196.49      156666.72    
     50900   210.17476      6710454.9      6724.9433      48.731617      2.3577398      156183.56      156680.99    
     51000   205.15756      6710734.9      6724.9433      48.731617      2.3577398      156191.93      156677.49    
     51100   199.78575      6710611.1      6724.9433      48.731617      2.3577398      156191.3       156664.15    
     51200   199.20507      6710468.8      6724.9433      48.731617      2.3577398      156187.52      156658.99    
     51300   197.34863      6710976.4      6724.9433      48.731617      2.3577398      156200.63      156667.71    
     51400   215.86986      6709911.9      6724.9433      48.731617      2.3577398      156167.54      156678.45    
     51500   203.11572      6710658.6      6724.9433      48.731617      2.3577398      156191.02      156671.75    
     51600   201.57469      6710180.3      6724.9433      48.731617      2.3577398      156180.01      156657.09    
     51700   197.722        6710391.8      6724.9433      48.731617      2.3577398      156186.7       156654.66    
     51800   198.30641      6710800.7      6724.9433      48.731617      2.3577398      156196.32      156665.67    
     51900   207.26526      6711133.5      6724.9433      48.731617      2.3577398      156200.39      156690.94    
     52000   205.92795      6711338.6      6724.9433      48.731617      2.3577398      156206.25      156693.63    
     52100   195.5127       6710965.3      6724.9433      48.731617      2.3577398      156201.07      156663.8     
     52200   190.19273      6710219        6724.9433      48.731617      2.3577398      156185.31      156635.45    
     52300   189.36684      6710565        6724.9433      48.731617      2.3577398      156193.37      156641.55    
     52400   205.96955      6710584.5      6724.9433      48.731617      2.3577398      156187.63      156675.12    
     52500   212.28197      6711381.8      6724.9433      48.731617      2.3577398      156204.28      156706.7     
     52600   209.33646      6711217.9      6724.9433      48.731617      2.3577398      156201.75      156697.2     
     52700   197.62716      6710478.1      6724.9433      48.731617      2.3577398      156188.54      156656.27    
     52800   192.7643       6709769.4      6724.9433      48.731617      2.3577398      156173.6       156629.82    
     52900   193.58207      6710027.2      6724.9433      48.731617      2.3577398      156179.55      156637.71    
     53000   199.7897       6711121.7      6724.9433      48.731617      2.3577398      156203.29      156676.15    
     53100   209.33609      6711812.4      6724.9433      48.731617      2.3577398      156217.03      156712.48    
     53200   212.27873      6711129.7      6724.9433      48.731617      2.3577398      156198.28      156700.69    
     53300   198.65589      6710402.6      6724.9433      48.731617      2.3577398      156186.12      156656.3     
     53400   186.10264      6710293        6724.9433      48.731617      2.3577398      156188.36      156628.82    
     53500   196.57709      6709857.2      6724.9433      48.731617      2.3577398      156173.73      156638.98    
     53600   194.51457      6711397.9      6724.9433      48.731617      2.3577398      156212.11      156672.48    
     53700   197.90957      6712277.9      6724.9433      48.731617      2.3577398      156232.28      156700.68    
     53800   207.25573      6711410.7      6724.9433      48.731617      2.3577398      156207.92      156698.44    
     53900   194.1342       6711393.7      6724.9433      48.731617      2.3577398      156211.86      156671.33    
     54000   190.76349      6710504.5      6724.9433      48.731617      2.3577398      156191.67      156643.16    
     54100   194.0591       6710105.4      6724.9433      48.731617      2.3577398      156180.75      156640.05    
     54200   200.70057      6710250.5      6724.9433      48.731617      2.3577398      156182.11      156657.12    
     54300   208.28062      6710723.3      6724.9433      48.731617      2.3577398      156191.1       156684.05    
     54400   207.02834      6711513.1      6724.9433      48.731617      2.3577398      156209.46      156699.45    
     54500   204.34769      6711225.7      6724.9433      48.731617      2.3577398      156204.32      156687.96    
     54600   194.41166      6710801.3      6724.9433      48.731617      2.3577398      156197.61      156657.73    
     54700   194.91257      6709757.1      6724.9433      48.731617      2.3577398      156171.93      156633.24    
     54800   197.40467      6709813.4      6724.9433      48.731617      2.3577398      156172.88      156640.09    
     54900   204.04418      6710698.3      6724.9433      48.731617      2.3577398      156191.86      156674.79    
     55000   211.52962      6711509.4      6724.9433      48.731617      2.3577398      156207.5       156708.14    
     55100   209.10941      6711566.7      6724.9433      48.731617      2.3577398      156210.17      156705.09    
     55200   199.67029      6710517.4      6724.9433      48.731617      2.3577398      156189.02      156661.59    
     55300   185.57166      6710220        6724.9433      48.731617      2.3577398      156187.11      156626.31    
     55400   189.81689      6710046        6724.9433      48.731617      2.3577398      156180.91      156630.16    
     55500   197.93113      6711142.1      6724.9433      48.731617      2.3577398      156204.02      156672.47    
     55600   206.31558      6712080        6724.9433      48.731617      2.3577398      156224.15      156712.45    
     55700   208.85178      6711601.8      6724.9433      48.731617      2.3577398      156211.09      156705.4     
     55800   198.84983      6710354.2      6724.9433      48.731617      2.3577398      156185.23      156655.86    
     55900   189.31183      6709987.8      6724.9433      48.731617      2.3577398      156180.11      156628.17    
     56000   194.48658      6710090.9      6724.9433      48.731617      2.3577398      156180.14      156640.45    
     56100   202.35404      6711052.4      6724.9433      48.731617      2.3577398      156200.28      156679.2     
     56200   215.01831      6711251.9      6724.9433      48.731617      2.3577398      156200.65      156709.55    
     56300   202.96426      6711332.1      6724.9433      48.731617      2.3577398      156207.28      156687.65    
     56400   196.09627      6710317.7      6724.9433      48.731617      2.3577398      156185.28      156649.4     
     56500   194.56513      6709949.5      6724.9433      48.731617      2.3577398      156176.54      156637.02    
     56600   205.4944       6709898.3      6724.9433      48.731617      2.3577398      156171.65      156658       
     56700   202.02601      6711364.6      6724.9433      48.731617      2.3577398      156207.98      156686.12    
     56800   207.75088      6711049.8      6724.9433      48.731617      2.3577398      156198.8       156690.5     
     56900   197.57031      6710864.6      6724.9433      48.731617      2.3577398      156198.26      156665.86    
     57000   193.69191      6710583.6      6724.9433      48.731617      2.3577398      156192.49      156650.91    
     57100   195.9813       6710781.6      6724.9433      48.731617      2.3577398      156196.51      156660.35    
     57200   204.98802      6710759.8      6724.9433      48.731617      2.3577398      156192.81      156677.97    
     57300   204.97016      6710885.4      6724.9433      48.731617      2.3577398      156195.07      156680.19    
     57400   195.63192      6710995.7      6724.9433      48.731617      2.3577398      156201.94      156664.96    
     57500   197.75121      6710319.7      6724.9433      48.731617      2.3577398      156184.25      156652.28    
     57600   196.87948      6710685.9      6724.9433      48.731617      2.3577398      156193.18      156659.15    
     57700   193.82304      6711751.1      6724.9433      48.731617      2.3577398      156221.09      156679.83    
     57800   206.43163      6711087.8      6724.9433      48.731617      2.3577398      156200.3       156688.88    
     57900   199.98599      6711012.2      6724.9433      48.731617      2.3577398      156200.26      156673.58    
     58000   197.16221      6710228.5      6724.9433      48.731617      2.3577398      156182.74      156649.37    
     58100   199.28486      6709885.1      6724.9433      48.731617      2.3577398      156173.69      156645.35    
     58200   198.12288      6710873.9      6724.9433      48.731617      2.3577398      156197.76      156666.67    
     58300   194.37534      6712211.8      6724.9433      48.731617      2.3577398      156232         156692.04    
     58400   202.93724      6711608.6      6724.9433      48.731617      2.3577398      156213.79      156694.1     
     58500   201.76009      6710510.5      6724.9433      48.731617      2.3577398      156187.47      156664.99    
     58600   196.44625      6709931.6      6724.9433      48.731617      2.3577398      156176.54      156641.48    
     58700   197.26237      6710086.8      6724.9433      48.731617      2.3577398      156179.25      156646.13    
     58800   203.46585      6710527.5      6724.9433      48.731617      2.3577398      156187.39      156668.95    
     58900   207.18781      6711070.5      6724.9433      48.731617      2.3577398      156198.79      156689.15    
     59000   205.40594      6711377.5      6724.9433      48.731617      2.3577398      156207.81      156693.96    
     59100   204.9383       6710526.4      6724.9433      48.731617      2.3577398      156186.93      156671.97    
     59200   190.11156      6710710.8      6724.9433      48.731617      2.3577398      156197.35      156647.3     
     59300   192.34124      6710442.7      6724.9433      48.731617      2.3577398      156189.52      156644.75    
     59400   196.04938      6710767.7      6724.9433      48.731617      2.3577398      156196.38      156660.38    
     59500   198.9096       6711445        6724.9433      48.731617      2.3577398      156211.87      156682.64    
     59600   204.67773      6711371.8      6724.9433      48.731617      2.3577398      156207.38      156691.81    
     59700   204.25194      6711010.1      6724.9433      48.731617      2.3577398      156198.57      156681.98    
     59800   201.79175      6710346.6      6724.9433      48.731617      2.3577398      156183.13      156660.72    
     59900   203.20638      6709525.9      6724.9433      48.731617      2.3577398      156163.83      156644.77    
     60000   191.15873      6710423.7      6724.9433      48.731617      2.3577398      156189.82      156642.25    
     60100   196.32514      6710987.5      6724.9433      48.731617      2.3577398      156201.78      156666.43    
     60200   211.79436      6711066.6      6724.9433      48.731617      2.3577398      156197.98      156699.25    
     60300   206.05313      6711791.5      6724.9433      48.731617      2.3577398      156216.96      156704.64    
     60400   199.53328      6710991.4      6724.9433      48.731617      2.3577398      156200.1       156672.35    
     60500   192.47341      6710078.9      6724.9433      48.731617      2.3577398      156180.73      156636.27    
     60600   185.93157      6710191        6724.9433      48.731617      2.3577398      156186.95      156627.01    
     60700   200.93973      6710299        6724.9433      48.731617      2.3577398      156182.82      156658.4     
     60800   197.04949      6712346        6724.9433      48.731617      2.3577398      156233.5       156699.87    
     60900   211.41408      6711764.9      6724.9433      48.731617      2.3577398      156214.25      156714.61    
     61000   206.37782      6710738.5      6724.9433      48.731617      2.3577398      156191.84      156680.29    
     61100   186.12951      6710512.3      6724.9433      48.731617      2.3577398      156194.18      156634.7     
     61200   188.86717      6709871.2      6724.9433      48.731617      2.3577398      156177.47      156624.47    
     61300   196.92132      6710531.9      6724.9433      48.731617      2.3577398      156190.2       156656.26    
     61400   206.11451      6711631        6724.9433      48.731617      2.3577398      156212.78      156700.61    
     61500   218.42977      6711063.3      6724.9433      48.731617      2.3577398      156194.83      156711.81    
     61600   195.0158       6711452.4      6724.9433      48.731617      2.3577398      156213.21      156674.76    
     61700   188.34883      6710516.3      6724.9433      48.731617      2.3577398      156192.89      156638.66    
     61800   192.44806      6709913.4      6724.9433      48.731617      2.3577398      156177.09      156632.57    
     61900   198.67118      6710624.5      6724.9433      48.731617      2.3577398      156191.14      156661.34    
     62000   195.81206      6711997        6724.9433      48.731617      2.3577398      156226.49      156689.93    
     62100   205.17391      6711476.4      6724.9433      48.731617      2.3577398      156210.29      156695.89    
     62200   201.08347      6710974        6724.9433      48.731617      2.3577398      156199.39      156675.3     
     62300   195.52985      6710610.9      6724.9433      48.731617      2.3577398      156193.31      156656.09    
     62400   192.82408      6710567.5      6724.9433      48.731617      2.3577398      156192.2       156648.57    
     62500   191.43412      6711005.9      6724.9433      48.731617      2.3577398      156203.95      156657.03    
     62600   201.27532      6710847.5      6724.9433      48.731617      2.3577398      156196.57      156672.94    
     62700   202.99003      6711019        6724.9433      48.731617      2.3577398      156199.52      156679.95    
     62800   196.3527       6711488.9      6724.9433      48.731617      2.3577398      156213.22      156677.94    
     62900   205.063        6710686.4      6724.9433      48.731617      2.3577398      156190.25      156675.59    
     63000   208.42409      6709969.6      6724.9433      48.731617      2.3577398      156172.38      156665.67    
     63100   195.10238      6710535.2      6724.9433      48.731617      2.3577398      156191.18      156652.94    
     63200   200.951        6710025.7      6724.9433      48.731617      2.3577398      156176.25      156651.85    
     63300   194.67691      6711139.3      6724.9433      48.731617      2.3577398      156206.01      156666.77    
     63400   206.39088      6711052.8      6724.9433      48.731617      2.3577398      156199.19      156687.67    
     63500   206.20085      6711227.9      6724.9433      48.731617      2.3577398      156203.43      156691.46    
     63600   193.78142      6711377.6      6724.9433      48.731617      2.3577398      156211.87      156670.5     
     63700   187.88774      6710860.1      6724.9433      48.731617      2.3577398      156201.8       156646.48    
     63800   200.51271      6709758.8      6724.9433      48.731617      2.3577398      156169.91      156644.48    
     63900   194.65917      6711047.7      6724.9433      48.731617      2.3577398      156203.55      156664.26    
     64000   205.42083      6711183.8      6724.9433      48.731617      2.3577398      156202.55      156688.73    
     64100   212.32396      6710894.5      6724.9433      48.731617      2.3577398      156192.57      156695.1     
     64200   206.3247       6710419.5      6724.9433      48.731617      2.3577398      156184.43      156672.75    
     64300   196.47623      6710245.8      6724.9433      48.731617      2.3577398      156183.13      156648.14    
     64400   199.62544      6709863.6      6724.9433      48.731617      2.3577398      156172.56      156645.03    
     64500   199.75208      6710603.3      6724.9433      48.731617      2.3577398      156190.11      156662.88    
     64600   210.38378      6710630.4      6724.9433      48.731617      2.3577398      156187.13      156685.06    
     64700   201.07785      6711424.7      6724.9433      48.731617      2.3577398      156210.79      156686.69    
     64800   197.49932      6711216.3      6724.9433      48.731617      2.3577398      156206.65      156674.09    
     64900   197.45375      6710610.5      6724.9433      48.731617      2.3577398      156191.75      156659.08    
     65000   203.15751      6709945        6724.9433      48.731617      2.3577398      156172.76      156653.59    
     65100   197.03403      6710766.9      6724.9433      48.731617      2.3577398      156195.78      156662.11    
     65200   197.93323      6711008.3      6724.9433      48.731617      2.3577398      156201.06      156669.52    
[...]
    384300   203.71373      6710964.4      6724.9433      48.731617      2.3577398      156198.44      156680.58    
    384400   200.31992      6711490.2      6724.9433      48.731617      2.3577398      156212.43      156686.54    
    384500   203.96155      6710630.3      6724.9433      48.731617      2.3577398      156190.01      156672.73    
    384600   191.42774      6710265.1      6724.9433      48.731617      2.3577398      156184.92      156637.98    
    384700   199.57927      6709786.7      6724.9433      48.731617      2.3577398      156170.52      156642.87    
    384800   202.96275      6710383.1      6724.9433      48.731617      2.3577398      156184.24      156664.61    
    384900   198.17536      6711240.1      6724.9433      48.731617      2.3577398      156206.81      156675.84    
    385000   210.71102      6710224.6      6724.9433      48.731617      2.3577398      156178.24      156676.94    
    385100   196.52583      6711080.9      6724.9433      48.731617      2.3577398      156203.7       156668.83    
    385200   196.01959      6711000.9      6724.9433      48.731617      2.3577398      156202.14      156666.07    
    385300   203.29736      6710403.2      6724.9433      48.731617      2.3577398      156184.31      156665.47    
    385400   195.32041      6711090.4      6724.9433      48.731617      2.3577398      156203.6       156665.87    
    385500   205.15794      6710384.3      6724.9433      48.731617      2.3577398      156183.6       156669.16    
    385600   203.99063      6710549.8      6724.9433      48.731617      2.3577398      156187.29      156670.09    
    385700   201.30804      6710684.9      6724.9433      48.731617      2.3577398      156191.55      156668       
    385800   197.23576      6710611.1      6724.9433      48.731617      2.3577398      156192.41      156659.22    
    385900   198.61793      6710051.6      6724.9433      48.731617      2.3577398      156178.59      156648.68    
    386000   198.237        6710403.5      6724.9433      48.731617      2.3577398      156186.55      156655.73    
    386100   201.0797       6711369.3      6724.9433      48.731617      2.3577398      156208.62      156684.53    
    386200   207.52695      6711230.7      6724.9433      48.731617      2.3577398      156202.46      156693.62    
    386300   205.55662      6710623.8      6724.9433      48.731617      2.3577398      156188.7       156675.21    
    386400   200.35968      6709763.7      6724.9433      48.731617      2.3577398      156170.55      156644.76    
    386500   197.36396      6710232.6      6724.9433      48.731617      2.3577398      156183.28      156650.39    
    386600   196.21145      6711052.5      6724.9433      48.731617      2.3577398      156201.83      156666.22    
    386700   201.57127      6711215.9      6724.9433      48.731617      2.3577398      156204.88      156681.95    
    386800   209.60219      6710938.2      6724.9433      48.731617      2.3577398      156194.67      156690.75    
    386900   206.61323      6710224.2      6724.9433      48.731617      2.3577398      156179.08      156668.08    
    387000   196.08545      6710077.5      6724.9433      48.731617      2.3577398      156179.69      156643.77    
    387100   192.46362      6710540.8      6724.9433      48.731617      2.3577398      156191.85      156647.37    
    387200   205.07568      6710638.3      6724.9433      48.731617      2.3577398      156188.75      156674.12    
    387300   210.80197      6710739.2      6724.9433      48.731617      2.3577398      156189.39      156688.31    
    387400   201.59285      6711217.1      6724.9433      48.731617      2.3577398      156205.08      156682.2     
    387500   201.2387       6710833.4      6724.9433      48.731617      2.3577398      156196.36      156672.65    
    387600   195.56676      6710866.5      6724.9433      48.731617      2.3577398      156198.66      156661.52    
    387700   189.82913      6710999.9      6724.9433      48.731617      2.3577398      156204.17      156653.45    
    387800   188.95744      6710644.1      6724.9433      48.731617      2.3577398      156195.92      156643.14    
    387900   189.65272      6710805.2      6724.9433      48.731617      2.3577398      156199.65      156648.51    
    388000   203.34812      6710783        6724.9433      48.731617      2.3577398      156193.97      156675.25    
    388100   203.02033      6711405        6724.9433      48.731617      2.3577398      156208.82      156689.32    
    388200   208.97057      6710540        6724.9433      48.731617      2.3577398      156185.3       156679.88    
    388300   201.87741      6709749.9      6724.9433      48.731617      2.3577398      156169.49      156647.28    
    388400   193.1609       6710096.5      6724.9433      48.731617      2.3577398      156180.13      156637.29    
    388500   197.75418      6710204.2      6724.9433      48.731617      2.3577398      156181.77      156649.81    
    388600   196.42522      6711049.2      6724.9433      48.731617      2.3577398      156202.93      156667.82    
    388700   196.96334      6711376.1      6724.9433      48.731617      2.3577398      156211         156677.17    
    388800   210.53335      6710244.8      6724.9433      48.731617      2.3577398      156178.31      156676.59    
    388900   198.29058      6710184.7      6724.9433      48.731617      2.3577398      156181.08      156650.39    
    389000   191.61332      6709968.7      6724.9433      48.731617      2.3577398      156178.75      156632.26    
    389100   194.29857      6710522        6724.9433      48.731617      2.3577398      156190.97      156650.82    
    389200   206.21278      6710495.2      6724.9433      48.731617      2.3577398      156185.97      156674.03    
    389300   200.87143      6711104.3      6724.9433      48.731617      2.3577398      156202.38      156677.79    
    389400   190.92759      6711614.7      6724.9433      48.731617      2.3577398      156219.04      156670.92    
    389500   200.88497      6710027.3      6724.9433      48.731617      2.3577398      156175.96      156651.41    
    389600   189.1824       6709723.7      6724.9433      48.731617      2.3577398      156173.2       156620.95    
    389700   194.27012      6709605.9      6724.9433      48.731617      2.3577398      156168.71      156628.5     
    389800   191.24653      6711158.8      6724.9433      48.731617      2.3577398      156207.81      156660.44    
    389900   207.47016      6710234.9      6724.9433      48.731617      2.3577398      156178.21      156669.24    
    390000   200.59612      6710757.1      6724.9433      48.731617      2.3577398      156194.73      156669.49    
    390100   200.00931      6710984        6724.9433      48.731617      2.3577398      156199.68      156673.05    
    390200   202.90263      6710901.8      6724.9433      48.731617      2.3577398      156196.83      156677.05    
    390300   207.17799      6710282.4      6724.9433      48.731617      2.3577398      156181.31      156671.65    
    390400   206.2684       6709694.2      6724.9433      48.731617      2.3577398      156165.72      156653.91    
    390500   195.05236      6709930.6      6724.9433      48.731617      2.3577398      156176.29      156637.93    
    390600   196.88515      6710319.3      6724.9433      48.731617      2.3577398      156184.73      156650.71    
    390700   203.21051      6711188.8      6724.9433      48.731617      2.3577398      156203.9       156684.85    
    390800   199.16327      6711580.9      6724.9433      48.731617      2.3577398      156214.64      156686.01    
    390900   205.21963      6710453.9      6724.9433      48.731617      2.3577398      156184.53      156670.24    
    391000   191.68968      6710589.7      6724.9433      48.731617      2.3577398      156193.85      156647.54    
    391100   191.41066      6710477.7      6724.9433      48.731617      2.3577398      156190.71      156643.73    
    391200   196.02389      6711904.2      6724.9433      48.731617      2.3577398      156224         156687.94    
    391300   205.85703      6711598.7      6724.9433      48.731617      2.3577398      156212.08      156699.3     
    391400   205.14414      6710860.8      6724.9433      48.731617      2.3577398      156194.91      156680.44    
    391500   201.21836      6710137.9      6724.9433      48.731617      2.3577398      156179.19      156655.42    
    391600   194.07341      6710511.2      6724.9433      48.731617      2.3577398      156191.46      156650.79    
    391700   200.2626       6710591.3      6724.9433      48.731617      2.3577398      156190.61      156664.59    
    391800   203.23413      6711221.1      6724.9433      48.731617      2.3577398      156203.96      156684.97    
    391900   211.42344      6712348.6      6724.9433      48.731617      2.3577398      156228.19      156728.58    
    392000   209.26895      6712413.6      6724.9433      48.731617      2.3577398      156230.79      156726.08    
    392100   208.00701      6711362.8      6724.9433      48.731617      2.3577398      156206.1       156698.41    
    392200   195.71734      6711409        6724.9433      48.731617      2.3577398      156211.76      156674.98    
    392300   200.62458      6710266.9      6724.9433      48.731617      2.3577398      156181.94      156656.77    
    392400   193.79281      6710506.9      6724.9433      48.731617      2.3577398      156190.9       156649.56    
    392500   191.52992      6711299.1      6724.9433      48.731617      2.3577398      156211.26      156664.56    
    392600   210.20158      6711224.1      6724.9433      48.731617      2.3577398      156201.5       156699       
    392700   201.222        6711890.3      6724.9433      48.731617      2.3577398      156222.01      156698.26    
    392800   199.07546      6711161.5      6724.9433      48.731617      2.3577398      156205.22      156676.38    
    392900   200.61342      6710531.3      6724.9433      48.731617      2.3577398      156188.85      156663.66    
    393000   191.46605      6711317.7      6724.9433      48.731617      2.3577398      156211.63      156664.79    
    393100   194.92047      6711045.5      6724.9433      48.731617      2.3577398      156203.41      156664.74    
    393200   196.97907      6711246.6      6724.9433      48.731617      2.3577398      156207.95      156674.16    
    393300   211.2865       6711137.1      6724.9433      48.731617      2.3577398      156199.41      156699.48    
    393400   211.36994      6711178.6      6724.9433      48.731617      2.3577398      156199.21      156699.47    
    393500   203.06581      6710451.8      6724.9433      48.731617      2.3577398      156185.8       156666.41    
    393600   197.50954      6710280.1      6724.9433      48.731617      2.3577398      156183.95      156651.41    
    393700   196.43777      6710650.9      6724.9433      48.731617      2.3577398      156193.3       156658.22    
    393800   208.75119      6710372        6724.9433      48.731617      2.3577398      156181.65      156675.71    
    393900   205.17507      6711634.8      6724.9433      48.731617      2.3577398      156214.04      156699.64    
    394000   215.01236      6711851.3      6724.9433      48.731617      2.3577398      156215         156723.88    
    394100   213.43701      6711440.3      6724.9433      48.731617      2.3577398      156205.63      156710.79    
    394200   200.67273      6710858.5      6724.9433      48.731617      2.3577398      156196.98      156671.92    
    394300   207.94696      6709661        6724.9433      48.731617      2.3577398      156164.9       156657.06    
    394400   192.80511      6710713.9      6724.9433      48.731617      2.3577398      156195.65      156651.97    
    394500   201.23607      6710535.5      6724.9433      48.731617      2.3577398      156189         156665.28    
    394600   207.71665      6711170.9      6724.9433      48.731617      2.3577398      156201.47      156693.08    
    394700   205.24696      6711571.6      6724.9433      48.731617      2.3577398      156212.4       156698.17    
    394800   205.60817      6710383.9      6724.9433      48.731617      2.3577398      156182.75      156669.38    
    394900   203.57568      6709695.1      6724.9433      48.731617      2.3577398      156166.99      156648.8     
    395000   199.19135      6710403.8      6724.9433      48.731617      2.3577398      156186.39      156657.82    
    395100   197.46656      6711269.8      6724.9433      48.731617      2.3577398      156207.8       156675.16    
    395200   201.87293      6711520.2      6724.9433      48.731617      2.3577398      156212.9       156690.68    
    395300   198.09041      6711557.5      6724.9433      48.731617      2.3577398      156215.3       156684.14    
    395400   191.66241      6710537.4      6724.9433      48.731617      2.3577398      156191.58      156645.2     
    395500   203.9343       6709416.3      6724.9433      48.731617      2.3577398      156159.29      156641.95    
    395600   191.91717      6711059.3      6724.9433      48.731617      2.3577398      156205.75      156659.97    
    395700   200.23178      6711198        6724.9433      48.731617      2.3577398      156204.92      156678.82    
    395800   207.3536       6710747.7      6724.9433      48.731617      2.3577398      156190.58      156681.34    
    395900   203.13272      6710798.8      6724.9433      48.731617      2.3577398      156194.77      156675.54    
    396000   198.04713      6710975.7      6724.9433      48.731617      2.3577398      156199.92      156668.65    
    396100   203.99538      6710263.2      6724.9433      48.731617      2.3577398      156180.63      156663.43    
    396200   198.15823      6710635.2      6724.9433      48.731617      2.3577398      156192.97      156661.96    
    396300   192.54943      6712206.6      6724.9433      48.731617      2.3577398      156232.63      156688.35    
    396400   205.54254      6711953.6      6724.9433      48.731617      2.3577398      156221.69      156708.16    
    396500   209.22411      6710786        6724.9433      48.731617      2.3577398      156191.47      156686.65    
    396600   197.65747      6710643.9      6724.9433      48.731617      2.3577398      156192.61      156660.41    
    396700   203.74223      6709926.3      6724.9433      48.731617      2.3577398      156172.82      156655.03    
    396800   203.23516      6710431.5      6724.9433      48.731617      2.3577398      156185.04      156666.05    
    396900   215.88037      6710637.8      6724.9433      48.731617      2.3577398      156185.67      156696.61    
    397000   210.15413      6711753.7      6724.9433      48.731617      2.3577398      156214.13      156711.51    
    397100   201.71403      6711131.7      6724.9433      48.731617      2.3577398      156202.78      156680.19    
    397200   195.44573      6710860.3      6724.9433      48.731617      2.3577398      156198.81      156661.38    
    397300   196.03254      6710825.5      6724.9433      48.731617      2.3577398      156197.84      156661.81    
    397400   192.34539      6711509.7      6724.9433      48.731617      2.3577398      156215.44      156670.67    
    397500   201.42294      6711209.9      6724.9433      48.731617      2.3577398      156204.53      156681.25    
    397600   210.44006      6710713        6724.9433      48.731617      2.3577398      156189.51      156687.57    
    397700   198.02418      6710985.4      6724.9433      48.731617      2.3577398      156200.26      156668.94    
    397800   193.06528      6710292.2      6724.9433      48.731617      2.3577398      156185.47      156642.41    
    397900   194.30634      6710345.4      6724.9433      48.731617      2.3577398      156186.15      156646.03    
    398000   195.55156      6711242.1      6724.9433      48.731617      2.3577398      156208.55      156671.37    
    398100   205.65405      6711166.3      6724.9433      48.731617      2.3577398      156202.24      156688.97    
    398200   191.43779      6711964        6724.9433      48.731617      2.3577398      156226.36      156679.45    
    398300   191.57452      6711325.7      6724.9433      48.731617      2.3577398      156212.03      156665.44    
    398400   199.23753      6710241.9      6724.9433      48.731617      2.3577398      156182.25      156653.79    
    398500   195.00151      6710183.3      6724.9433      48.731617      2.3577398      156182.86      156644.38    
    398600   192.77594      6710542.6      6724.9433      48.731617      2.3577398      156191.25      156647.5     
    398700   200.65872      6710984.6      6724.9433      48.731617      2.3577398      156199.99      156674.9     
    398800   215.26856      6710511.4      6724.9433      48.731617      2.3577398      156182.64      156692.13    
    398900   197.2091       6711627.8      6724.9433      48.731617      2.3577398      156216.86      156683.61    
    399000   193.14556      6710667.5      6724.9433      48.731617      2.3577398      156194.81      156651.94    
    399100   192.63013      6710397.9      6724.9433      48.731617      2.3577398      156188.06      156643.97    
    399200   194.73007      6710632.7      6724.9433      48.731617      2.3577398      156193.56      156654.44    
    399300   202.68242      6710633.5      6724.9433      48.731617      2.3577398      156190.28      156669.98    
    399400   205.02588      6710939.9      6724.9433      48.731617      2.3577398      156196.9       156682.14    
    399500   213.12064      6710456        6724.9433      48.731617      2.3577398      156181.78      156686.18    
    399600   202.287        6710554.8      6724.9433      48.731617      2.3577398      156188.59      156667.35    
    399700   189.03426      6710620.9      6724.9433      48.731617      2.3577398      156196.09      156643.48    
    399800   191.22336      6710393.4      6724.9433      48.731617      2.3577398      156189.19      156641.77    
    399900   199.62567      6710910.4      6724.9433      48.731617      2.3577398      156198.17      156670.63    
    400000   194.78852      6711897.8      6724.9433      48.731617      2.3577398      156223.32      156684.33    
    400100   193.19647      6711820.5      6724.9433      48.731617      2.3577398      156222.97      156680.22    
Loop time of 25.3022 on 64 procs for 400000 steps with 795 atoms

Performance: 341.472 ns/day, 0.070 hours/ns, 15808.887 timesteps/s
99.6% CPU use with 64 MPI tasks x 1 OpenMP threads

MPI task timing breakdown:
Section |  min time  |  avg time  |  max time  |%varavg| %total
---------------------------------------------------------------
Pair    | 2.0397     | 2.7335     | 3.5129     |  18.9 | 10.80
Neigh   | 0.018031   | 0.024968   | 0.030826   |   1.5 |  0.10
Comm    | 13.5       | 15.586     | 18.48      |  27.9 | 61.60
Output  | 0.31854    | 0.32544    | 0.36712    |   1.0 |  1.29
Modify  | 2.9202     | 6.0982     | 7.9619     |  44.9 | 24.10
Other   |            | 0.5341     |            |       |  2.11

Nlocal:        12.4219 ave          16 max           9 min
Histogram: 2 2 9 0 19 21 0 9 1 1
Nghost:        644.438 ave         671 max         616 min
Histogram: 2 4 8 7 6 7 16 6 6 2
Neighs:        826.531 ave        1092 max         570 min
Histogram: 2 1 5 13 9 16 12 4 1 1

Total # of neighbors = 52898
Ave neighs/atom = 66.538365
Neighbor list builds = 749
Dangerous builds = 17

write_data graphene_single_layer_LJ_795C_after_temp_200K.data ### MODIFY FILE NAME ###
System init for write_data ...
Generated 0 of 0 mixed pair_coeff terms from geometric mixing rule
Total wall time: 0:00:25
