# System definition
read_data graphene_single_layer_x-45_y-45_795_C.data  ### MODIFY FILE NAME ###
Reading data file ...
  orthogonal box = (-1.4464652 -1.4423034 -1.42) to (47.285152 47.149102 1.42)
  8 by 8 by 1 MPI processor grid
  reading atoms ...
  795 atoms
  reading velocities ...
  795 velocities
  read_data CPU = 0.045 seconds
pair_style lj/cut 6
pair_coeff      1 1 0.066047 3.4

# Virtual force wall to keep the cylinder shape
#region myCylinder cylinder z 0. 0. 20.3 -22.079997 505.920003 units box
#fix wall all wall/region myCylinder lj93 1.0 1.0 2.5

# Minimization
timestep 0.25
thermo 100
thermo_style custom step temp press vol lx density pe etotal
dump 2 all custom 1000 graphene_single_layer_LJ_795C_after_temp_600K.lammpstrj id type x y z ### MODIFY FILE NAME ###
min_style cg
minimize 1.0e-6 1.0e-6 100 1000
WARNING: Using 'neigh_modify every 1 delay 0 check yes' setting during minimization (src/min.cpp:187)
Generated 0 of 0 mixed pair_coeff terms from geometric mixing rule
Neighbor list info ...
  update every 1 steps, delay 0 steps, check yes
  max neighbors/atom: 10000, page size: 100000
  master list distance cutoff = 6.4
  ghost atom cutoff = 6.4
  binsize = 3.2, bins = 16 16 1
  1 neighbor lists, perpetual/occasional/extra = 1 0 0
  (1) pair lj/cut, perpetual
      attributes: half, newton on
      pair build: half/bin/atomonly/newton
      stencil: half/bin/3d
      bin: standard
Per MPI rank memory allocation (min/avg/max) = 5.47 | 5.472 | 5.472 Mbytes
   Step          Temp          Press          Volume           Lx          Density         PotEng         TotEng    
         0   923            3.5764745e+08  6724.9433      48.731617      2.3577398      8739313.6      8741498.1    
       100   923            47390520       6724.9433      48.731617      2.3577398      1146833.4      1149017.9    
Loop time of 0.0262385 on 64 procs for 100 steps with 795 atoms

96.8% CPU use with 64 MPI tasks x 1 OpenMP threads

Minimization stats:
  Stopping criterion = max iterations
  Energy initial, next-to-last, final = 
      8739313.57439336   1156380.83320826   1146833.40532139
  Force two-norm initial, final = 757147.49 28301.772
  Force max component initial, final = 127132.22 7330.8006
  Final line search alpha, max atom move = 9.6526089e-06 0.070761352
  Iterations, force evaluations = 100 123

MPI task timing breakdown:
Section |  min time  |  avg time  |  max time  |%varavg| %total
---------------------------------------------------------------
Pair    | 0.0016061  | 0.0025177  | 0.0033518  |   0.7 |  9.60
Neigh   | 0.001004   | 0.0015342  | 0.0019927  |   0.5 |  5.85
Comm    | 0.0089189  | 0.0098774  | 0.011203   |   0.5 | 37.64
Output  | 7.3698e-05 | 7.7949e-05 | 9.4438e-05 |   0.0 |  0.30
Modify  | 0          | 0          | 0          |   0.0 |  0.00
Other   |            | 0.01223    |            |       | 46.62

Nlocal:        12.4219 ave          15 max           9 min
Histogram: 1 3 0 11 0 17 19 0 11 2
Nghost:        579.656 ave         611 max         547 min
Histogram: 1 5 5 9 9 13 9 7 4 2
Neighs:        790.734 ave         969 max         597 min
Histogram: 3 2 10 1 15 7 13 5 7 1

Total # of neighbors = 50607
Ave neighs/atom = 63.656604
Neighbor list builds = 37
Dangerous builds = 0
#timestep 0.25
fix 1 all nvt temp 600.0 600.0 $(100.0*dt) ### MODIFY INITIAL TEMP, FINAL TEMP ###
fix 1 all nvt temp 600.0 600.0 25 
run 400000
Generated 0 of 0 mixed pair_coeff terms from geometric mixing rule
Per MPI rank memory allocation (min/avg/max) = 4.346 | 4.347 | 4.347 Mbytes
   Step          Temp          Press          Volume           Lx          Density         PotEng         TotEng    
       100   923            47390520       6724.9433      48.731617      2.3577398      1146833.4      1149017.9    
       200   13972.349      10207751       6724.9433      48.731617      2.3577398      235760.35      268829.59    
       300   3640.3659      8135828.7      6724.9433      48.731617      2.3577398      189443.57      198059.46    
       400   1852.2214      7599303.3      6724.9433      48.731617      2.3577398      177113.38      181497.15    
       500   1252.4502      7343299.2      6724.9433      48.731617      2.3577398      171132.18      174096.43    
       600   843.11621      7214385        6724.9433      48.731617      2.3577398      168165.28      170160.73    
       700   591.51092      7154208.1      6724.9433      48.731617      2.3577398      166801.13      168201.09    
       800   646.85564      7098426.6      6724.9433      48.731617      2.3577398      165422.68      166953.64    
       900   746.94399      7033040        6724.9433      48.731617      2.3577398      163797.59      165565.43    
      1000   627.90967      6972017.7      6724.9433      48.731617      2.3577398      162365.38      163851.5     
      1100   590.16855      6929300.7      6724.9433      48.731617      2.3577398      161347.1       162743.89    
      1200   532.5745       6903385.4      6724.9433      48.731617      2.3577398      160739.88      162000.35    
      1300   608.89471      6879850.8      6724.9433      48.731617      2.3577398      160137.36      161578.47    
      1400   637.36754      6849525.5      6724.9433      48.731617      2.3577398      159392.31      160900.81    
      1500   627.46343      6814203        6724.9433      48.731617      2.3577398      158537.98      160023.04    
      1600   541.41175      6788095.8      6724.9433      48.731617      2.3577398      157938.28      159219.67    
      1700   575.91217      6767238.5      6724.9433      48.731617      2.3577398      157418.68      158781.73    
      1800   562.13475      6754169.9      6724.9433      48.731617      2.3577398      157107.96      158438.4     
      1900   624.656        6741923.1      6724.9433      48.731617      2.3577398      156787.17      158265.58    
      2000   648.95931      6731648.7      6724.9433      48.731617      2.3577398      156527.36      158063.29    
      2100   636.76905      6715842        6724.9433      48.731617      2.3577398      156146.29      157653.37    
      2200   557.58051      6704945.4      6724.9433      48.731617      2.3577398      155915.47      157235.13    
      2300   512.69738      6700213.3      6724.9433      48.731617      2.3577398      155818.86      157032.29    
      2400   658.23646      6692613.9      6724.9433      48.731617      2.3577398      155575.62      157133.51    
      2500   671.35109      6690358.4      6724.9433      48.731617      2.3577398      155517.87      157106.8     
      2600   654.56861      6671678.9      6724.9433      48.731617      2.3577398      155072.39      156621.6     
      2700   526.47648      6657017.3      6724.9433      48.731617      2.3577398      154766.3       156012.34    
      2800   462.57485      6651997.2      6724.9433      48.731617      2.3577398      154669.34      155764.14    
      2900   597.23505      6650047.3      6724.9433      48.731617      2.3577398      154569.45      155982.97    
      3000   690.11345      6658228.2      6724.9433      48.731617      2.3577398      154731.35      156364.68    
      3100   629.24201      6666171.3      6724.9433      48.731617      2.3577398      154948.13      156437.39    
      3200   640.23655      6655105.3      6724.9433      48.731617      2.3577398      154677.74      156193.03    
      3300   640.30679      6637181.4      6724.9433      48.731617      2.3577398      154243.19      155758.64    
      3400   548.4949       6627482.3      6724.9433      48.731617      2.3577398      154044         155342.15    
      3500   510.96824      6625557.2      6724.9433      48.731617      2.3577398      154010.69      155220.03    
      3600   638.33939      6622423.9      6724.9433      48.731617      2.3577398      153885.75      155396.55    
      3700   627.93598      6626687.2      6724.9433      48.731617      2.3577398      153992.12      155478.3     
      3800   662.35786      6619069        6724.9433      48.731617      2.3577398      153794.31      155361.95    
      3900   657.40967      6599823.2      6724.9433      48.731617      2.3577398      153328.71      154884.64    
      4000   550.71535      6585658        6724.9433      48.731617      2.3577398      153027.38      154330.79    
      4100   502.19884      6582522.2      6724.9433      48.731617      2.3577398      152969.16      154157.75    
      4200   526.99348      6590078.4      6724.9433      48.731617      2.3577398      153143.08      154390.35    
      4300   681.11498      6599093.2      6724.9433      48.731617      2.3577398      153301.62      154913.66    
      4400   731.11651      6609011.1      6724.9433      48.731617      2.3577398      153520.62      155251       
      4500   653.93658      6605879.2      6724.9433      48.731617      2.3577398      153478.4       155026.11    
      4600   585.02769      6592308.9      6724.9433      48.731617      2.3577398      153174.83      154559.45    
      4700   514.90394      6585818.5      6724.9433      48.731617      2.3577398      153045         154263.65    
      4800   520.08899      6587982.6      6724.9433      48.731617      2.3577398      153094.91      154325.83    
      4900   582.55491      6597225.9      6724.9433      48.731617      2.3577398      153294.81      154673.58    
      5000   681.7661       6605086.1      6724.9433      48.731617      2.3577398      153447.4       155060.97    
      5100   679.03252      6605369.2      6724.9433      48.731617      2.3577398      153454.31      155061.41    
      5200   593.30376      6598812.4      6724.9433      48.731617      2.3577398      153329.52      154733.73    
      5300   541.36072      6591732.9      6724.9433      48.731617      2.3577398      153178.29      154459.56    
      5400   540.7945       6589698.2      6724.9433      48.731617      2.3577398      153128.9       154408.83    
      5500   568.22252      6594214.3      6724.9433      48.731617      2.3577398      153227.02      154571.87    
      5600   630.81513      6599586.9      6724.9433      48.731617      2.3577398      153333.68      154826.67    
      5700   658.44789      6601537.1      6724.9433      48.731617      2.3577398      153369.81      154928.2     
      5800   625.52074      6599485.4      6724.9433      48.731617      2.3577398      153332.33      154812.79    
      5900   595.58952      6594583.1      6724.9433      48.731617      2.3577398      153226.01      154635.63    
      6000   572.15682      6592842.7      6724.9433      48.731617      2.3577398      153192.66      154546.82    
      6100   615.24818      6591806.5      6724.9433      48.731617      2.3577398      153150.78      154606.93    
      6200   618.57086      6595591.5      6724.9433      48.731617      2.3577398      153240.8       154704.81    
      6300   618.19916      6597308.8      6724.9433      48.731617      2.3577398      153284.27      154747.4     
      6400   602.02957      6596511.8      6724.9433      48.731617      2.3577398      153270.16      154695.02    
      6500   568.28475      6597741.8      6724.9433      48.731617      2.3577398      153313.76      154658.76    
      6600   592.70723      6598208.8      6724.9433      48.731617      2.3577398      153315         154717.8     
      6700   610.34349      6599257.2      6724.9433      48.731617      2.3577398      153333.45      154777.99    
      6800   631.32027      6596734.9      6724.9433      48.731617      2.3577398      153262.87      154757.06    
      6900   589.14668      6594524.5      6724.9433      48.731617      2.3577398      153227.05      154621.42    
      7000   561.69311      6593007.9      6724.9433      48.731617      2.3577398      153200.24      154529.63    
      7100   577.14977      6594353        6724.9433      48.731617      2.3577398      153226.74      154592.72    
      7200   610.80108      6598382.5      6724.9433      48.731617      2.3577398      153312.48      154758.1     
      7300   641.27549      6601703.9      6724.9433      48.731617      2.3577398      153381.76      154899.5     
      7400   659.7284       6598803.3      6724.9433      48.731617      2.3577398      153304.15      154865.57    
      7500   608.60402      6593785.2      6724.9433      48.731617      2.3577398      153201.7       154642.12    
      7600   542.33595      6591001.7      6724.9433      48.731617      2.3577398      153160.23      154443.81    
      7700   557.34038      6590897.3      6724.9433      48.731617      2.3577398      153150.14      154469.24    
      7800   615.29374      6595660.6      6724.9433      48.731617      2.3577398      153243.89      154700.15    
      7900   655.85365      6602045.9      6724.9433      48.731617      2.3577398      153383.76      154936.01    
      8000   661.26763      6602627.1      6724.9433      48.731617      2.3577398      153395.88      154960.94    
      8100   601.45282      6597490.6      6724.9433      48.731617      2.3577398      153294.44      154717.94    
      8200   538.25262      6592246.1      6724.9433      48.731617      2.3577398      153191.43      154465.35    
      8300   535.31218      6590183.6      6724.9433      48.731617      2.3577398      153142.98      154409.94    
      8400   580.95982      6593959.2      6724.9433      48.731617      2.3577398      153216.51      154591.51    
      8500   646.64507      6600267.7      6724.9433      48.731617      2.3577398      153343.47      154873.92    
      8600   660.5348       6604329.4      6724.9433      48.731617      2.3577398      153436.62      154999.95    
      8700   635.73161      6600488.9      6724.9433      48.731617      2.3577398      153353.76      154858.38    
      8800   565.99465      6594772.2      6724.9433      48.731617      2.3577398      153242.92      154582.49    
      8900   562.14481      6588863.7      6724.9433      48.731617      2.3577398      153099.88      154430.34    
      9000   549.01153      6591867.7      6724.9433      48.731617      2.3577398      153178.59      154477.97    
      9100   609.33409      6596480.4      6724.9433      48.731617      2.3577398      153265.84      154707.99    
      9200   654.36818      6601516.3      6724.9433      48.731617      2.3577398      153369.7       154918.44    
      9300   636.25406      6602090.3      6724.9433      48.731617      2.3577398      153391.24      154897.1     
      9400   598.95385      6597428.1      6724.9433      48.731617      2.3577398      153294.52      154712.11    
      9500   580.35806      6592716.3      6724.9433      48.731617      2.3577398      153186.04      154559.61    
      9600   549.68141      6593317.8      6724.9433      48.731617      2.3577398      153212.99      154513.95    
      9700   575.53262      6594763.2      6724.9433      48.731617      2.3577398      153239.34      154601.49    
      9800   615.0834       6598627.4      6724.9433      48.731617      2.3577398      153317.32      154773.07    
      9900   644.78061      6600517.2      6724.9433      48.731617      2.3577398      153351.35      154877.39    
     10000   627.3966       6599312.9      6724.9433      48.731617      2.3577398      153329.06      154813.95    
     10100   585.28038      6596506.1      6724.9433      48.731617      2.3577398      153277.18      154662.4     
     10200   578.39847      6592607.4      6724.9433      48.731617      2.3577398      153184.41      154553.35    
     10300   562.19507      6593805.6      6724.9433      48.731617      2.3577398      153220.72      154551.3     
     10400   587.82781      6595684.4      6724.9433      48.731617      2.3577398      153256.06      154647.31    
     10500   636.27402      6596987.3      6724.9433      48.731617      2.3577398      153269.13      154775.04    
     10600   607.03382      6601612        6724.9433      48.731617      2.3577398      153392.09      154828.8     
     10700   620.7445       6598577.2      6724.9433      48.731617      2.3577398      153314.38      154783.54    
     10800   590.5465       6596492.7      6724.9433      48.731617      2.3577398      153274.76      154672.44    
     10900   591.533        6592743.9      6724.9433      48.731617      2.3577398      153183.09      154583.11    
     11000   573.9173       6593639.9      6724.9433      48.731617      2.3577398      153211.44      154569.77    
     11100   598.58063      6594864.9      6724.9433      48.731617      2.3577398      153231.38      154648.08    
     11200   635.40173      6596846.5      6724.9433      48.731617      2.3577398      153265.64      154769.49    
     11300   618.77451      6601020.7      6724.9433      48.731617      2.3577398      153374.23      154838.72    
     11400   629.33561      6597560.8      6724.9433      48.731617      2.3577398      153285.52      154775.01    
     11500   603.21311      6593900.4      6724.9433      48.731617      2.3577398      153206.72      154634.38    
     11600   558.53711      6593856.6      6724.9433      48.731617      2.3577398      153223.16      154545.08    
     11700   572.76681      6593958.9      6724.9433      48.731617      2.3577398      153219.31      154574.91    
     11800   603.97077      6596519        6724.9433      48.731617      2.3577398      153268.63      154698.08    
     11900   619.77641      6600299.3      6724.9433      48.731617      2.3577398      153355.58      154822.45    
     12000   629.82897      6600164.6      6724.9433      48.731617      2.3577398      153348.11      154838.77    
     12100   598.00244      6597789.1      6724.9433      48.731617      2.3577398      153302.73      154718.06    
     12200   584.41071      6593422.5      6724.9433      48.731617      2.3577398      153203.8       154586.96    
     12300   566.12245      6593305.8      6724.9433      48.731617      2.3577398      153207.62      154547.5     
     12400   585.84905      6595115.4      6724.9433      48.731617      2.3577398      153243.35      154629.92    
     12500   620.79842      6598299.6      6724.9433      48.731617      2.3577398      153306.74      154776.02    
     12600   631.54484      6600317.5      6724.9433      48.731617      2.3577398      153351.31      154846.03    
     12700   613.41525      6597513.6      6724.9433      48.731617      2.3577398      153290.98      154742.79    
     12800   587.16475      6594310.8      6724.9433      48.731617      2.3577398      153222.53      154612.21    
     12900   571.51831      6594404.6      6724.9433      48.731617      2.3577398      153231.57      154584.22    
     13000   595.75316      6594390.1      6724.9433      48.731617      2.3577398      153220.82      154630.82    
     13100   605.82717      6597088.1      6724.9433      48.731617      2.3577398      153283.62      154717.47    
     13200   617.54557      6598391.3      6724.9433      48.731617      2.3577398      153310.78      154772.37    
     13300   616.76829      6597512.5      6724.9433      48.731617      2.3577398      153289.41      154749.16    
     13400   617.7437       6594545.9      6724.9433      48.731617      2.3577398      153217.08      154679.13    
     13500   560.66959      6597618.2      6724.9433      48.731617      2.3577398      153313.49      154640.47    
     13600   602.01895      6596267.3      6724.9433      48.731617      2.3577398      153264.64      154689.47    
     13700   629.71628      6595701.4      6724.9433      48.731617      2.3577398      153240.22      154730.61    
     13800   619.75005      6595903.1      6724.9433      48.731617      2.3577398      153249.88      154716.68    
     13900   595.01196      6595565        6724.9433      48.731617      2.3577398      153249.98      154658.24    
     14000   575.33294      6595039.6      6724.9433      48.731617      2.3577398      153245.54      154607.22    
     14100   557.62574      6598328.4      6724.9433      48.731617      2.3577398      153331.59      154651.36    
     14200   608.14259      6598362.4      6724.9433      48.731617      2.3577398      153314.35      154753.68    
     14300   641.49033      6598467.9      6724.9433      48.731617      2.3577398      153302.4       154820.65    
     14400   603.51925      6597768.5      6724.9433      48.731617      2.3577398      153300.7       154729.08    
     14500   573.06762      6594240        6724.9433      48.731617      2.3577398      153225.84      154582.16    
     14600   573.83367      6592234.9      6724.9433      48.731617      2.3577398      153178.19      154536.32    
     14700   588.238        6594903.3      6724.9433      48.731617      2.3577398      153238.15      154630.37    
     14800   633.77899      6598596.6      6724.9433      48.731617      2.3577398      153309.31      154809.31    
     14900   642.74672      6601839.6      6724.9433      48.731617      2.3577398      153384.5       154905.73    
     15000   649.75307      6597187.2      6724.9433      48.731617      2.3577398      153268.59      154806.4     
     15100   588.20459      6592704.7      6724.9433      48.731617      2.3577398      153183.97      154576.11    
     15200   549.39618      6590266.3      6724.9433      48.731617      2.3577398      153139.59      154439.88    
     15300   570.82215      6592355.9      6724.9433      48.731617      2.3577398      153181.38      154532.38    
     15400   607.67007      6599416.8      6724.9433      48.731617      2.3577398      153338.6       154776.81    
     15500   639.89602      6604562.1      6724.9433      48.731617      2.3577398      153450.61      154965.09    
     15600   643.78511      6601292.1      6724.9433      48.731617      2.3577398      153371.07      154894.76    
     15700   605.25368      6593536.6      6724.9433      48.731617      2.3577398      153197.57      154630.06    
     15800   539.17671      6590401        6724.9433      48.731617      2.3577398      153147.17      154423.27    
     15900   528.71791      6592136.3      6724.9433      48.731617      2.3577398      153192.96      154444.31    
     16000   606.83245      6595987.2      6724.9433      48.731617      2.3577398      153256.59      154692.82    
     16100   655.29973      6603452.7      6724.9433      48.731617      2.3577398      153418.13      154969.07    
     16200   639.22394      6605169.9      6724.9433      48.731617      2.3577398      153465.1       154977.99    
     16300   588.79353      6598225.8      6724.9433      48.731617      2.3577398      153317.22      154710.76    
     16400   550.96188      6590842        6724.9433      48.731617      2.3577398      153151.87      154455.87    
     16500   555.42163      6588198        6724.9433      48.731617      2.3577398      153087.5       154402.05    
     16600   558.92452      6595649.5      6724.9433      48.731617      2.3577398      153266.45      154589.29    
     16700   636.41829      6601976.4      6724.9433      48.731617      2.3577398      153388.82      154895.07    
     16800   660.96281      6605187.9      6724.9433      48.731617      2.3577398      153458.63      155022.97    
     16900   616.77556      6599958.4      6724.9433      48.731617      2.3577398      153348.32      154808.08    
     17000   554.4189       6592521.7      6724.9433      48.731617      2.3577398      153192.1       154504.28    
     17100   536.90168      6589207.1      6724.9433      48.731617      2.3577398      153119.04      154389.76    
     17200   564.92813      6592660        6724.9433      48.731617      2.3577398      153191.53      154528.58    
     17300   628.67109      6599589.7      6724.9433      48.731617      2.3577398      153335.34      154823.26    
     17400   645.06547      6606129.5      6724.9433      48.731617      2.3577398      153488.3       155015.02    
     17500   645.44045      6601454.3      6724.9433      48.731617      2.3577398      153374.14      154901.75    
     17600   571.51302      6595404.9      6724.9433      48.731617      2.3577398      153255.32      154607.96    
     17700   525.38579      6590864.5      6724.9433      48.731617      2.3577398      153164.15      154407.61    
     17800   537.9126       6591854.9      6724.9433      48.731617      2.3577398      153182.8       154455.92    
     17900   599.54768      6596921.1      6724.9433      48.731617      2.3577398      153281.67      154700.65    
     18000   654.99406      6602822.9      6724.9433      48.731617      2.3577398      153403.53      154953.74    
     18100   636.98754      6604149.3      6724.9433      48.731617      2.3577398      153442.17      154949.77    
     18200   614.34342      6595783.8      6724.9433      48.731617      2.3577398      153249.16      154703.17    
     18300   563.30409      6590622.5      6724.9433      48.731617      2.3577398      153143.83      154477.04    
     18400   531.97866      6592089.5      6724.9433      48.731617      2.3577398      153190.84      154449.91    
     18500   588.55433      6594999.1      6724.9433      48.731617      2.3577398      153239.17      154632.14    
     18600   652.66036      6599191.6      6724.9433      48.731617      2.3577398      153316         154860.69    
     18700   669.05407      6600685        6724.9433      48.731617      2.3577398      153345.62      154929.12    
     18800   614.48479      6598975        6724.9433      48.731617      2.3577398      153325.18      154779.52    
     18900   568.89784      6593855.8      6724.9433      48.731617      2.3577398      153218.55      154565       
     19000   566.05914      6590427.7      6724.9433      48.731617      2.3577398      153137.68      154477.41    
     19100   590.83042      6592707.7      6724.9433      48.731617      2.3577398      153182.43      154580.79    
     19200   633.10508      6597829        6724.9433      48.731617      2.3577398      153290.92      154789.33    
     19300   625.24371      6602107.3      6724.9433      48.731617      2.3577398      153398.07      154877.88    
     19400   614.04635      6599675.1      6724.9433      48.731617      2.3577398      153342.66      154795.97    
     19500   582.99044      6595715.8      6724.9433      48.731617      2.3577398      153258.57      154638.37    
     19600   568.68095      6592999.5      6724.9433      48.731617      2.3577398      153198.62      154544.56    
     19700   575.11401      6594366.9      6724.9433      48.731617      2.3577398      153229.35      154590.51    
     19800   621.52962      6596050        6724.9433      48.731617      2.3577398      153251.76      154722.77    
     19900   644.61701      6597684.3      6724.9433      48.731617      2.3577398      153282.71      154808.36    
     20000   628.67392      6597302.4      6724.9433      48.731617      2.3577398      153280.52      154768.45    
     20100   585.26437      6596793.1      6724.9433      48.731617      2.3577398      153283.51      154668.69    
     20200   588.60523      6594064.4      6724.9433      48.731617      2.3577398      153217.29      154610.38    
     20300   574.24339      6596127.3      6724.9433      48.731617      2.3577398      153272.86      154631.96    
     20400   594.91235      6597765.3      6724.9433      48.731617      2.3577398      153303.92      154711.94    
     20500   616.09654      6598114.5      6724.9433      48.731617      2.3577398      153304.82      154762.98    
     20600   605.947        6597114.9      6724.9433      48.731617      2.3577398      153284.17      154718.3     
     20700   588.48139      6595612        6724.9433      48.731617      2.3577398      153254.4       154647.2     
     20800   591.88764      6594996.4      6724.9433      48.731617      2.3577398      153238.17      154639.03    
     20900   611.71393      6595858.8      6724.9433      48.731617      2.3577398      153250.34      154698.12    
     21000   612.95452      6597891.1      6724.9433      48.731617      2.3577398      153299.57      154750.29    
     21100   639.68181      6595698.8      6724.9433      48.731617      2.3577398      153235.44      154749.42    
     21200   598.0322       6595750.7      6724.9433      48.731617      2.3577398      153253.42      154668.82    
     21300   590.87683      6593127.8      6724.9433      48.731617      2.3577398      153193.08      154591.54    
     21400   562.39284      6596180.9      6724.9433      48.731617      2.3577398      153278.24      154609.29    
     21500   607.58888      6597422.8      6724.9433      48.731617      2.3577398      153290.6       154728.62    
     21600   648.23486      6598385.3      6724.9433      48.731617      2.3577398      153297.76      154831.98    
     21700   646.24752      6596737.6      6724.9433      48.731617      2.3577398      153258.65      154788.16    
     21800   600.99195      6594499.2      6724.9433      48.731617      2.3577398      153222.11      154644.52    
     21900   579.57165      6591933        6724.9433      48.731617      2.3577398      153167.88      154539.59    
     22000   566.06655      6593621.3      6724.9433      48.731617      2.3577398      153214.95      154554.7     
     22100   599.69589      6597354.4      6724.9433      48.731617      2.3577398      153292.03      154711.36    
     22200   645.44046      6600972.2      6724.9433      48.731617      2.3577398      153362.26      154889.87    
     22300   639.18698      6600719.6      6724.9433      48.731617      2.3577398      153358.74      154871.54    
     22400   600.24917      6595217.6      6724.9433      48.731617      2.3577398      153239.88      154660.53    
     22500   561.1044       6591356.3      6724.9433      48.731617      2.3577398      153161.98      154489.98    
     22600   564.31131      6591318.9      6724.9433      48.731617      2.3577398      153159.55      154495.14    
     22700   609.05621      6595075.8      6724.9433      48.731617      2.3577398      153232.5       154673.99    
     22800   660.86425      6599612.5      6724.9433      48.731617      2.3577398      153322.63      154886.74    
     22900   658.55654      6601993.5      6724.9433      48.731617      2.3577398      153381.93      154940.57    
     23000   619.57263      6597529.3      6724.9433      48.731617      2.3577398      153287.93      154754.31    
     23100   564.47746      6591291.5      6724.9433      48.731617      2.3577398      153159.46      154495.44    
     23200   527.98879      6591067.3      6724.9433      48.731617      2.3577398      153167.47      154417.09    
     23300   568.67018      6594730.9      6724.9433      48.731617      2.3577398      153240.55      154586.46    
     23400   632.36876      6600912.8      6724.9433      48.731617      2.3577398      153365.29      154861.95    
     23500   651.83723      6604655        6724.9433      48.731617      2.3577398      153449.5       154992.25    
     23600   603.47238      6602137.5      6724.9433      48.731617      2.3577398      153405.93      154834.21    
     23700   587.76811      6592031.7      6724.9433      48.731617      2.3577398      153167.73      154558.84    
     23800   548.81532      6588848.1      6724.9433      48.731617      2.3577398      153105.57      154404.48    
     23900   545.22263      6592705.1      6724.9433      48.731617      2.3577398      153199.58      154490       
     24000   615.30444      6598151.5      6724.9433      48.731617      2.3577398      153305.84      154762.12    
     24100   667.91849      6603331.2      6724.9433      48.731617      2.3577398      153410.33      154991.13    
     24200   629.27214      6604043.5      6724.9433      48.731617      2.3577398      153443.36      154932.69    
     24300   598.71865      6595096.8      6724.9433      48.731617      2.3577398      153238.29      154655.32    
     24400   543.57895      6590170.1      6724.9433      48.731617      2.3577398      153138.91      154425.43    
     24500   530.60349      6590994.5      6724.9433      48.731617      2.3577398      153163.58      154419.39    
     24600   587.12825      6596308.7      6724.9433      48.731617      2.3577398      153271.53      154661.13    
     24700   652.85879      6602644.1      6724.9433      48.731617      2.3577398      153399.99      154945.15    
     24800   663.21889      6603709.5      6724.9433      48.731617      2.3577398      153422.09      154991.77    
     24900   639.52875      6595973.2      6724.9433      48.731617      2.3577398      153243.37      154756.98    
     25000   573.87374      6590373.7      6724.9433      48.731617      2.3577398      153132.55      154490.77    
     25100   555.19239      6588460.8      6724.9433      48.731617      2.3577398      153093.48      154407.49    
     25200   592.03023      6591622        6724.9433      48.731617      2.3577398      153156.4       154557.6     
     25300   638.57845      6598934.6      6724.9433      48.731617      2.3577398      153313.75      154825.12    
     25400   659.85713      6603957.7      6724.9433      48.731617      2.3577398      153429.16      154990.89    
     25500   639.41992      6600434.5      6724.9433      48.731617      2.3577398      153350.95      154864.31    
     25600   584.36908      6593932.5      6724.9433      48.731617      2.3577398      153215.24      154598.3     
     25700   533.57092      6591355.7      6724.9433      48.731617      2.3577398      153173.44      154436.28    
     25800   562.47947      6591224.5      6724.9433      48.731617      2.3577398      153159.15      154490.41    
     25900   623.26857      6595644.7      6724.9433      48.731617      2.3577398      153240.95      154716.08    
     26000   655.65343      6602062.1      6724.9433      48.731617      2.3577398      153384.26      154936.03    
     26100   622.10513      6603737.1      6724.9433      48.731617      2.3577398      153438.14      154910.51    
     26200   570.09218      6598722.1      6724.9433      48.731617      2.3577398      153336.65      154685.92    
     26300   566.5505       6591463.8      6724.9433      48.731617      2.3577398      153161.71      154502.6     
     26400   550.05413      6592348.2      6724.9433      48.731617      2.3577398      153189.93      154491.78    
     26500   597.98238      6594833.1      6724.9433      48.731617      2.3577398      153232.13      154647.41    
     26600   641.60962      6598929        6724.9433      48.731617      2.3577398      153314.5       154833.03    
     26700   627.34492      6602366.7      6724.9433      48.731617      2.3577398      153403.3       154888.08    
     26800   617.06292      6597935.5      6724.9433      48.731617      2.3577398      153299.68      154760.12    
     26900   561.07495      6595240.1      6724.9433      48.731617      2.3577398      153255.37      154583.3     
     27000   565.98271      6592177        6724.9433      48.731617      2.3577398      153178.11      154517.66    
     27100   596.86908      6593088.3      6724.9433      48.731617      2.3577398      153189.82      154602.47    
     27200   616.72263      6597957.1      6724.9433      48.731617      2.3577398      153300.46      154760.1     
     27300   637.65716      6599837.9      6724.9433      48.731617      2.3577398      153338.08      154847.26    
     27400   620.9712       6598607.1      6724.9433      48.731617      2.3577398      153315.75      154785.44    
     27500   572.01315      6596989.1      6724.9433      48.731617      2.3577398      153294.07      154647.89    
     27600   577.20945      6593438.8      6724.9433      48.731617      2.3577398      153206.24      154572.36    
     27700   546.22398      6597447.6      6724.9433      48.731617      2.3577398      153314.58      154607.36    
     27800   575.23083      6599092.7      6724.9433      48.731617      2.3577398      153343.94      154705.37    
     27900   617.11319      6598383        6724.9433      48.731617      2.3577398      153310.15      154770.71    
     28000   598.96642      6599502.5      6724.9433      48.731617      2.3577398      153344.69      154762.3     
     28100   608.55606      6596155.5      6724.9433      48.731617      2.3577398      153259.27      154699.58    
     28200   582.27569      6595222.8      6724.9433      48.731617      2.3577398      153247.9       154626.01    
     28300   560.43627      6596775.7      6724.9433      48.731617      2.3577398      153294.27      154620.69    
     28400   599.66878      6596331.9      6724.9433      48.731617      2.3577398      153267.92      154687.2     
     28500   623.32245      6597068.5      6724.9433      48.731617      2.3577398      153276         154751.26    
     28600   611.70569      6597409.8      6724.9433      48.731617      2.3577398      153289.11      154736.87    
     28700   594.87478      6596489.5      6724.9433      48.731617      2.3577398      153272.43      154680.36    
     28800   571.13008      6597285.2      6724.9433      48.731617      2.3577398      153301.43      154653.16    
     28900   590.5111       6596116.3      6724.9433      48.731617      2.3577398      153264.94      154662.54    
     29000   596.45147      6596749.6      6724.9433      48.731617      2.3577398      153279.38      154691.04    
     29100   601.61519      6597459.7      6724.9433      48.731617      2.3577398      153293.72      154717.6     
     29200   624.06582      6595702.9      6724.9433      48.731617      2.3577398      153243.3       154720.31    
     29300   599.23355      6596289        6724.9433      48.731617      2.3577398      153266.82      154685.06    
     29400   588.16723      6596262.8      6724.9433      48.731617      2.3577398      153270.54      154662.6     
     29500   600.46807      6595826.9      6724.9433      48.731617      2.3577398      153255.1       154676.26    
     29600   593.09512      6597967.5      6724.9433      48.731617      2.3577398      153308.96      154712.68    
     29700   623.07956      6596324.4      6724.9433      48.731617      2.3577398      153257.84      154732.52    
     29800   615.91058      6595959.2      6724.9433      48.731617      2.3577398      153251.64      154709.35    
     29900   573.24518      6597368.4      6724.9433      48.731617      2.3577398      153303.27      154660.01    
     30000   595.25186      6594268.6      6724.9433      48.731617      2.3577398      153219.2       154628.02    
     30100   593.23225      6595919.3      6724.9433      48.731617      2.3577398      153259.83      154663.87    
     30200   622.98391      6596226.3      6724.9433      48.731617      2.3577398      153256.33      154730.79    
     30300   616.64903      6597811.3      6724.9433      48.731617      2.3577398      153297         154756.46    
     30400   629.3941       6595577.6      6724.9433      48.731617      2.3577398      153236.85      154726.48    
     30500   618.81434      6593913.8      6724.9433      48.731617      2.3577398      153200.84      154665.43    
     30600   582.96638      6595002.4      6724.9433      48.731617      2.3577398      153241.49      154621.23    
     30700   568.59559      6596873.7      6724.9433      48.731617      2.3577398      153292.94      154638.67    
     30800   595.35344      6597444.9      6724.9433      48.731617      2.3577398      153296.14      154705.2     
     30900   601.76236      6599522.6      6724.9433      48.731617      2.3577398      153345.09      154769.32    
     31000   626.07893      6597282.8      6724.9433      48.731617      2.3577398      153280.76      154762.54    
     31100   601.55168      6596385.6      6724.9433      48.731617      2.3577398      153267.21      154690.94    
     31200   583.71533      6595100.1      6724.9433      48.731617      2.3577398      153242.98      154624.49    
     31300   593.01784      6593533.9      6724.9433      48.731617      2.3577398      153202.1       154605.64    
     31400   572.44894      6597386.4      6724.9433      48.731617      2.3577398      153303.18      154658.03    
     31500   626.16506      6597064.4      6724.9433      48.731617      2.3577398      153274.58      154756.57    
     31600   646.11632      6596765.9      6724.9433      48.731617      2.3577398      153259.54      154788.74    
     31700   602.17302      6598111.9      6724.9433      48.731617      2.3577398      153309.8       154735.01    
     31800   607.30698      6593961.8      6724.9433      48.731617      2.3577398      153205.58      154642.93    
     31900   585.54434      6593789.7      6724.9433      48.731617      2.3577398      153210.92      154596.76    
     32000   597.06089      6594274.1      6724.9433      48.731617      2.3577398      153218.04      154631.14    
     32100   606.00387      6597087.8      6724.9433      48.731617      2.3577398      153283.57      154717.84    
     32200   626.4153       6598411.5      6724.9433      48.731617      2.3577398      153307.24      154789.81    
     32300   637.43131      6596952.6      6724.9433      48.731617      2.3577398      153267.41      154776.06    
     32400   591.33246      6596566.9      6724.9433      48.731617      2.3577398      153276.16      154675.7     
     32500   578.18681      6594367.3      6724.9433      48.731617      2.3577398      153228.19      154596.62    
     32600   558.28885      6595998.5      6724.9433      48.731617      2.3577398      153275.23      154596.56    
     32700   576.15698      6597954.1      6724.9433      48.731617      2.3577398      153315.6       154679.23    
     32800   620.51913      6598516.5      6724.9433      48.731617      2.3577398      153312.64      154781.26    
     32900   635.24808      6598252        6724.9433      48.731617      2.3577398      153300.38      154803.87    
     33000   594.94703      6597935.9      6724.9433      48.731617      2.3577398      153307.72      154715.81    
     33100   565.37347      6596136.3      6724.9433      48.731617      2.3577398      153275.35      154613.46    
     33200   562.38449      6595101.9      6724.9433      48.731617      2.3577398      153252.03      154583.06    
     33300   593.68983      6595262.6      6724.9433      48.731617      2.3577398      153243.51      154648.63    
     33400   609.54197      6597928.1      6724.9433      48.731617      2.3577398      153302.93      154745.57    
     33500   657.02422      6596492.5      6724.9433      48.731617      2.3577398      153250.04      154805.06    
     33600   632.77801      6596956.5      6724.9433      48.731617      2.3577398      153270.63      154768.27    
     33700   582.47578      6596267.7      6724.9433      48.731617      2.3577398      153271.17      154649.75    
     33800   575.58665      6593546.5      6724.9433      48.731617      2.3577398      153209.41      154571.69    
     33900   585.43572      6594344.3      6724.9433      48.731617      2.3577398      153224.15      154609.74    
     34000   601.43322      6597438.1      6724.9433      48.731617      2.3577398      153293.05      154716.5     
     34100   618.51637      6599157.8      6724.9433      48.731617      2.3577398      153328.55      154792.43    
     34200   616.3155       6598818.8      6724.9433      48.731617      2.3577398      153321.73      154780.4     
     34300   608.20134      6596104.8      6724.9433      48.731617      2.3577398      153258.57      154698.04    
     34400   570.76149      6595228.6      6724.9433      48.731617      2.3577398      153250.82      154601.68    
     34500   573.68562      6593961.4      6724.9433      48.731617      2.3577398      153219.35      154577.13    
     34600   594.42834      6596095.4      6724.9433      48.731617      2.3577398      153262.11      154668.98    
     34700   636.15853      6597521.4      6724.9433      48.731617      2.3577398      153281.47      154787.11    
     34800   612.68477      6600097.6      6724.9433      48.731617      2.3577398      153354.2       154804.28    
     34900   596.31021      6597929.6      6724.9433      48.731617      2.3577398      153307.19      154718.52    
     35000   591.33313      6594184.6      6724.9433      48.731617      2.3577398      153218.49      154618.03    
     35100   592.05532      6592638.1      6724.9433      48.731617      2.3577398      153180.01      154581.27    
     35200   589.70308      6595022.8      6724.9433      48.731617      2.3577398      153239.3       154634.98    
     35300   606.93855      6598345.4      6724.9433      48.731617      2.3577398      153313.74      154750.22    
     35400   624.40948      6599466        6724.9433      48.731617      2.3577398      153334.31      154812.14    
     35500   593.54592      6599414.9      6724.9433      48.731617      2.3577398      153344.29      154749.07    
     35600   606.80744      6594074.2      6724.9433      48.731617      2.3577398      153209.62      154645.79    
     35700   582.30906      6593591        6724.9433      48.731617      2.3577398      153207.31      154585.49    
     35800   570.41179      6595920.1      6724.9433      48.731617      2.3577398      153269.35      154619.38    
     35900   599.46116      6597570.2      6724.9433      48.731617      2.3577398      153296.79      154715.57    
     36000   623.26359      6599115.9      6724.9433      48.731617      2.3577398      153325.27      154800.39    
     36100   622.3968       6598368.7      6724.9433      48.731617      2.3577398      153307.87      154780.94    
     36200   611.03082      6594756.8      6724.9433      48.731617      2.3577398      153224.24      154670.4     
     36300   568.79135      6594549.4      6724.9433      48.731617      2.3577398      153236.18      154582.37    
     36400   583.55432      6594074.9      6724.9433      48.731617      2.3577398      153218.63      154599.77    
     36500   597.39946      6596931.5      6724.9433      48.731617      2.3577398      153283.22      154697.12    
     36600   616.24635      6599052        6724.9433      48.731617      2.3577398      153327.6       154786.11    
     36700   618.62003      6599074.2      6724.9433      48.731617      2.3577398      153326.48      154790.61    
     36800   599.6061       6596771.8      6724.9433      48.731617      2.3577398      153278.75      154697.87    
     36900   566.32093      6595510.8      6724.9433      48.731617      2.3577398      153260.56      154600.91    
     37000   576.4693       6594399.1      6724.9433      48.731617      2.3577398      153229.58      154593.95    
     37100   606.29403      6595235.3      6724.9433      48.731617      2.3577398      153238.15      154673.11    
     37200   611.73526      6598386.4      6724.9433      48.731617      2.3577398      153312.44      154760.28    
     37300   606.77304      6599687.2      6724.9433      48.731617      2.3577398      153345.71      154781.8     
     37400   590.62001      6598740.6      6724.9433      48.731617      2.3577398      153329.82      154727.68    
     37500   585.24477      6595545.9      6724.9433      48.731617      2.3577398      153255.01      154640.14    
     37600   587.78482      6593778.7      6724.9433      48.731617      2.3577398      153209.45      154600.6     
     37700   597.66934      6594912.4      6724.9433      48.731617      2.3577398      153233.07      154647.62    
     37800   616.00511      6597052.3      6724.9433      48.731617      2.3577398      153278.76      154736.7     
     37900   614.05138      6598460        6724.9433      48.731617      2.3577398      153314.73      154768.05    
     38000   612.92756      6596815.4      6724.9433      48.731617      2.3577398      153273.83      154724.48    
     38100   594.81578      6595712.5      6724.9433      48.731617      2.3577398      153255.14      154662.93    
     38200   584.03582      6595576.8      6724.9433      48.731617      2.3577398      153254.71      154636.99    
     38300   586.71646      6596268        6724.9433      48.731617      2.3577398      153270.81      154659.43    
     38400   600.62765      6597213.2      6724.9433      48.731617      2.3577398      153287.63      154709.17    
     38500   606.8958       6597815.9      6724.9433      48.731617      2.3577398      153300.63      154737.01    
     38600   612.58618      6596436.9      6724.9433      48.731617      2.3577398      153264.69      154714.53    
     38700   586.31093      6596805.8      6724.9433      48.731617      2.3577398      153283.45      154671.11    
     38800   593.65348      6595701.4      6724.9433      48.731617      2.3577398      153253.69      154658.72    
     38900   597.66627      6596092.1      6724.9433      48.731617      2.3577398      153262.3       154676.83    
     39000   591.09562      6597867        6724.9433      48.731617      2.3577398      153308.48      154707.46    
     39100   606.03009      6596967.5      6724.9433      48.731617      2.3577398      153280.38      154714.7     
     39200   605.83981      6595848.9      6724.9433      48.731617      2.3577398      153252.03      154685.91    
     39300   567.22463      6597940        6724.9433      48.731617      2.3577398      153319.48      154661.96    
     39400   614.34557      6595076.6      6724.9433      48.731617      2.3577398      153230.49      154684.5     
     39500   612.69229      6596385.8      6724.9433      48.731617      2.3577398      153263.48      154713.58    
     39600   629.64442      6595334.3      6724.9433      48.731617      2.3577398      153232.35      154722.57    
     39700   560.99998      6600008.5      6724.9433      48.731617      2.3577398      153371.65      154699.4     
     39800   602.80889      6595017.1      6724.9433      48.731617      2.3577398      153234.54      154661.25    
     39900   592.58348      6594933.7      6724.9433      48.731617      2.3577398      153236.02      154638.53    
     40000   584.00855      6596826.8      6724.9433      48.731617      2.3577398      153286.02      154668.23    
     40100   617.37117      6597113.8      6724.9433      48.731617      2.3577398      153280.25      154741.42    
     40200   609.73581      6598827.8      6724.9433      48.731617      2.3577398      153324.56      154767.66    
     40300   603.70399      6597130.9      6724.9433      48.731617      2.3577398      153285.03      154713.85    
     40400   597.25109      6594179.8      6724.9433      48.731617      2.3577398      153215.79      154629.35    
     40500   578.71849      6594754        6724.9433      48.731617      2.3577398      153237.24      154606.93    
     40600   602.37958      6594555.8      6724.9433      48.731617      2.3577398      153223.11      154648.8     
     40700   600.84305      6598392.2      6724.9433      48.731617      2.3577398      153316.66      154738.71    
     40800   629.72753      6598967.3      6724.9433      48.731617      2.3577398      153319.85      154810.27    
     40900   610.69046      6598820.3      6724.9433      48.731617      2.3577398      153323.48      154768.84    
     41000   583.11964      6595743.8      6724.9433      48.731617      2.3577398      153259.86      154639.96    
     41100   580.24927      6592658.5      6724.9433      48.731617      2.3577398      153185.55      154558.87    
     41200   572.53621      6594957        6724.9433      48.731617      2.3577398      153243.82      154598.88    
     41300   619.01201      6596041.9      6724.9433      48.731617      2.3577398      153253.43      154718.48    
     41400   602.82025      6601538.7      6724.9433      48.731617      2.3577398      153391.57      154818.3     
     41500   623.23465      6599929.6      6724.9433      48.731617      2.3577398      153343.27      154818.32    
     41600   616.81381      6595043.8      6724.9433      48.731617      2.3577398      153228.92      154688.78    
     41700   551.58534      6594687        6724.9433      48.731617      2.3577398      153246.28      154551.75    
     41800   553.04139      6594043.4      6724.9433      48.731617      2.3577398      153230.35      154539.27    
     41900   601.11772      6595406.4      6724.9433      48.731617      2.3577398      153244.62      154667.32    
     42000   617.92197      6600364.5      6724.9433      48.731617      2.3577398      153357.81      154820.28    
     42100   641.95202      6600129.2      6724.9433      48.731617      2.3577398      153343.26      154862.61    
     42200   608.60214      6597830.6      6724.9433      48.731617      2.3577398      153299.83      154740.25    
     42300   544.66552      6596400.4      6724.9433      48.731617      2.3577398      153290.74      154579.83    
     42400   549.16269      6593189        6724.9433      48.731617      2.3577398      153210         154509.74    
     42500   583.31009      6594111.6      6724.9433      48.731617      2.3577398      153220.71      154601.27    
     42600   602.21145      6599960.9      6724.9433      48.731617      2.3577398      153353.97      154779.26    
     42700   642.38219      6600897.2      6724.9433      48.731617      2.3577398      153361.47      154881.84    
     42800   642.67583      6597827.3      6724.9433      48.731617      2.3577398      153286.62      154807.68    
     42900   572.32751      6596249.3      6724.9433      48.731617      2.3577398      153276.47      154631.04    
     43000   579.36889      6590888.4      6724.9433      48.731617      2.3577398      153143.45      154514.68    
     43100   567.43434      6592829.5      6724.9433      48.731617      2.3577398      153195.73      154538.72    
     43200   596.8464       6597521.3      6724.9433      48.731617      2.3577398      153297.62      154710.21    
     43300   626.1018       6601753.2      6724.9433      48.731617      2.3577398      153388.45      154870.28    
     43400   637.80584      6600226        6724.9433      48.731617      2.3577398      153348.12      154857.65    
     43500   606.75101      6595836.2      6724.9433      48.731617      2.3577398      153254.06      154690.1     
     43600   585.19804      6591525.8      6724.9433      48.731617      2.3577398      153156.79      154541.82    
     43700   559.73759      6592749.7      6724.9433      48.731617      2.3577398      153196.4       154521.16    
     43800   575.93931      6596455.5      6724.9433      48.731617      2.3577398      153279.7       154642.82    
     43900   612.51649      6600583.5      6724.9433      48.731617      2.3577398      153366.03      154815.71    
     44000   650.75595      6600234.8      6724.9433      48.731617      2.3577398      153342.11      154882.3     
     44100   613.10961      6598131        6724.9433      48.731617      2.3577398      153306.68      154757.77    
     44200   583.75165      6593249.2      6724.9433      48.731617      2.3577398      153198.43      154580.03    
     44300   556.43732      6592653.6      6724.9433      48.731617      2.3577398      153195.41      154512.37    
     44400   577.20641      6594518        6724.9433      48.731617      2.3577398      153231.72      154597.83    
     44500   612.34451      6598680.9      6724.9433      48.731617      2.3577398      153320.5       154769.78    
     44600   652.03274      6599886.1      6724.9433      48.731617      2.3577398      153333.27      154876.48    
     44700   609.5563       6600445.7      6724.9433      48.731617      2.3577398      153362.21      154804.88    
     44800   604.72624      6593893.9      6724.9433      48.731617      2.3577398      153206.56      154637.81    
     44900   565.5647       6592371.1      6724.9433      48.731617      2.3577398      153185.02      154523.58    
     45000   568.76095      6593574.5      6724.9433      48.731617      2.3577398      153212.2       154558.33    
     45100   609.62882      6596590.5      6724.9433      48.731617      2.3577398      153270         154712.85    
     45200   620.75697      6601526.7      6724.9433      48.731617      2.3577398      153385.41      154854.59    
     45300   614.07226      6601571.9      6724.9433      48.731617      2.3577398      153388.31      154841.68    
     45400   609.23062      6595810        6724.9433      48.731617      2.3577398      153250.37      154692.28    
     45500   577.93444      6592381.1      6724.9433      48.731617      2.3577398      153180.22      154548.05    
     45600   583.2239       6591585        6724.9433      48.731617      2.3577398      153157.76      154538.11    
     45700   605.30465      6594872.4      6724.9433      48.731617      2.3577398      153228.7       154661.31    
     45800   605.77076      6600918        6724.9433      48.731617      2.3577398      153376.11      154809.83    
     45900   644.5226       6599575.6      6724.9433      48.731617      2.3577398      153328.01      154853.44    
     46000   616.59234      6597436.6      6724.9433      48.731617      2.3577398      153287.62      154746.94    
     46100   595.50048      6592753.7      6724.9433      48.731617      2.3577398      153181.92      154591.33    
     46200   582.32842      6591169.9      6724.9433      48.731617      2.3577398      153149.63      154527.86    
     46300   561.44266      6596487.6      6724.9433      48.731617      2.3577398      153285.76      154614.56    
     46400   615.18458      6598610.3      6724.9433      48.731617      2.3577398      153315.98      154771.97    
     46500   622.66811      6601002        6724.9433      48.731617      2.3577398      153371.66      154845.37    
     46600   627.68727      6598033.6      6724.9433      48.731617      2.3577398      153297.8       154783.39    
     46700   571.58923      6596577.3      6724.9433      48.731617      2.3577398      153284.49      154637.31    
     46800   553.94081      6593990.4      6724.9433      48.731617      2.3577398      153229.34      154540.39    
     46900   568.9873       6594247.6      6724.9433      48.731617      2.3577398      153228.02      154574.68    
     47000   609.24661      6597096.3      6724.9433      48.731617      2.3577398      153282.68      154724.62    
     47100   638.55414      6599760.7      6724.9433      48.731617      2.3577398      153335.39      154846.7     
     47200   641.68432      6598163.5      6724.9433      48.731617      2.3577398      153295.69      154814.41    
     47300   569.16073      6598088        6724.9433      48.731617      2.3577398      153321.06      154668.13    
     47400   587.46945      6592041.3      6724.9433      48.731617      2.3577398      153167.2       154557.6     
     47500   591.9124       6591647        6724.9433      48.731617      2.3577398      153157.33      154558.25    
     47600   598.29982      6596036.8      6724.9433      48.731617      2.3577398      153260.38      154676.42    
     47700   621.99333      6599865.1      6724.9433      48.731617      2.3577398      153343.95      154816.06    
     47800   639.23642      6599636.4      6724.9433      48.731617      2.3577398      153332.37      154845.29    
     47900   614.38671      6596327.4      6724.9433      48.731617      2.3577398      153261.89      154716       
     48000   584.76708      6592953.2      6724.9433      48.731617      2.3577398      153191.71      154575.72    
     48100   579.22006      6591995.1      6724.9433      48.731617      2.3577398      153169.57      154540.45    
     48200   580.9223       6595874.6      6724.9433      48.731617      2.3577398      153263.26      154638.17    
     48300   609.54173      6599549.2      6724.9433      48.731617      2.3577398      153341.55      154784.19    
     48400   630.06523      6600464.5      6724.9433      48.731617      2.3577398      153354.87      154846.09    
     48500   629.40451      6597235.8      6724.9433      48.731617      2.3577398      153278.46      154768.11    
     48600   577.22954      6595274.8      6724.9433      48.731617      2.3577398      153250.8       154616.97    
     48700   565.27746      6592919.7      6724.9433      48.731617      2.3577398      153198.99      154536.87    
     48800   609.44013      6591960.3      6724.9433      48.731617      2.3577398      153157.59      154599.99    
     48900   613.08677      6597406.9      6724.9433      48.731617      2.3577398      153288.12      154739.15    
     49000   653.91598      6598155.8      6724.9433      48.731617      2.3577398      153290.76      154838.43    
     49100   606.34324      6600898.4      6724.9433      48.731617      2.3577398      153374.41      154809.48    
     49200   604.43323      6595226.3      6724.9433      48.731617      2.3577398      153238.22      154668.77    
     49300   571.93173      6592953.2      6724.9433      48.731617      2.3577398      153196.1       154549.73    
     49400   578.30666      6592890.1      6724.9433      48.731617      2.3577398      153192.36      154561.08    
     49500   607.49511      6595680        6724.9433      48.731617      2.3577398      153248.05      154685.85    
     49600   635.45696      6598820.4      6724.9433      48.731617      2.3577398      153313.43      154817.41    
     49700   618.29713      6600688.9      6724.9433      48.731617      2.3577398      153365.71      154829.07    
     49800   601.58986      6597636.6      6724.9433      48.731617      2.3577398      153298.76      154722.58    
     49900   571.7256       6594858.8      6724.9433      48.731617      2.3577398      153241.97      154595.11    
     50000   541.56431      6595293.2      6724.9433      48.731617      2.3577398      153264.41      154546.17    
     50100   602.26581      6593647.4      6724.9433      48.731617      2.3577398      153201.59      154627.01    
     50200   618.80209      6598111        6724.9433      48.731617      2.3577398      153302.44      154767       
     50300   628.04923      6600270        6724.9433      48.731617      2.3577398      153351.05      154837.49    
     50400   616.9561       6598403.6      6724.9433      48.731617      2.3577398      153311.05      154771.24    
     50500   592.43047      6595113.8      6724.9433      48.731617      2.3577398      153240.34      154642.48    
     50600   574.07231      6593216.2      6724.9433      48.731617      2.3577398      153201.01      154559.7     
     50700   573.11234      6594474.2      6724.9433      48.731617      2.3577398      153232.76      154589.18    
     50800   610.49967      6596352.5      6724.9433      48.731617      2.3577398      153262.95      154707.86    
     50900   630.70503      6598915.9      6724.9433      48.731617      2.3577398      153318.24      154810.97    
     51000   655.34313      6596705.7      6724.9433      48.731617      2.3577398      153255.37      154806.41    
     51100   604.8239       6596264.1      6724.9433      48.731617      2.3577398      153263.78      154695.25    
     51200   586.71815      6593450.4      6724.9433      48.731617      2.3577398      153202.44      154591.06    
     51300   565.9292       6594735.6      6724.9433      48.731617      2.3577398      153241.51      154580.93    
     51400   597.20563      6595588.3      6724.9433      48.731617      2.3577398      153250.27      154663.71    
     51500   603.8978       6599294.2      6724.9433      48.731617      2.3577398      153337.16      154766.44    
     51600   611.25889      6600174.6      6724.9433      48.731617      2.3577398      153355.95      154802.66    
     51700   601.61547      6598183.9      6724.9433      48.731617      2.3577398      153311.01      154734.9     
     51800   592.45469      6594668.7      6724.9433      48.731617      2.3577398      153229.7       154631.9     
     51900   587.92193      6593318.8      6724.9433      48.731617      2.3577398      153199.57      154591.05    
     52000   586.25979      6595191.2      6724.9433      48.731617      2.3577398      153244.29      154631.83    
     52100   596.50667      6598060.8      6724.9433      48.731617      2.3577398      153310.64      154722.43    
     52200   635.44761      6597553.2      6724.9433      48.731617      2.3577398      153283.03      154786.98    
     52300   626.65025      6596983.3      6724.9433      48.731617      2.3577398      153272.19      154755.32    
     52400   597.15291      6595975.7      6724.9433      48.731617      2.3577398      153259.04      154672.36    
     52500   585.20711      6594635.5      6724.9433      48.731617      2.3577398      153230.36      154615.41    
     52600   596.70516      6594107.1      6724.9433      48.731617      2.3577398      153213.86      154626.12    
     52700   594.88433      6596745.8      6724.9433      48.731617      2.3577398      153279.7       154687.65    
     52800   585.74238      6599902.1      6724.9433      48.731617      2.3577398      153358.99      154745.3     
     52900   611.38464      6598495.5      6724.9433      48.731617      2.3577398      153315.03      154762.04    
     53000   594.12669      6597803.9      6724.9433      48.731617      2.3577398      153304.3       154710.46    
     53100   570.40503      6596844.5      6724.9433      48.731617      2.3577398      153291.25      154641.26    
     53200   598.94624      6593979.8      6724.9433      48.731617      2.3577398      153210.05      154627.61    
     53300   599.21905      6595608.6      6724.9433      48.731617      2.3577398      153249.96      154668.17    
     53400   602.31151      6597275.2      6724.9433      48.731617      2.3577398      153289.01      154714.53    
     53500   614.82087      6597305.8      6724.9433      48.731617      2.3577398      153285.8       154740.93    
     53600   592.41951      6598760.8      6724.9433      48.731617      2.3577398      153329.05      154731.17    
     53700   591.49697      6597187.6      6724.9433      48.731617      2.3577398      153291.47      154691.4     
     53800   597.60758      6595072.1      6724.9433      48.731617      2.3577398      153237.4       154651.8     
     53900   603.38586      6594429.7      6724.9433      48.731617      2.3577398      153218.76      154646.83    
     54000   612.74833      6595116.5      6724.9433      48.731617      2.3577398      153232.64      154682.87    
     54100   605.07768      6597240.6      6724.9433      48.731617      2.3577398      153287.2       154719.27    
     54200   582.61041      6599347.7      6724.9433      48.731617      2.3577398      153346.68      154725.58    
     54300   617.59797      6595875.8      6724.9433      48.731617      2.3577398      153249.45      154711.16    
     54400   597.73218      6596388.1      6724.9433      48.731617      2.3577398      153269.45      154684.14    
     54500   579.55868      6596694.8      6724.9433      48.731617      2.3577398      153284.42      154656.09    
     54600   581.12434      6596887.1      6724.9433      48.731617      2.3577398      153288.45      154663.84    
     54700   582.4986       6597660.9      6724.9433      48.731617      2.3577398      153306.35      154684.98    
     54800   611.71393      6596276.2      6724.9433      48.731617      2.3577398      153261.21      154709       
     54900   602.93787      6597517.2      6724.9433      48.731617      2.3577398      153295.36      154722.38    
     55000   605.42359      6597061.5      6724.9433      48.731617      2.3577398      153283.23      154716.12    
     55100   608.72959      6595658.5      6724.9433      48.731617      2.3577398      153247.93      154688.65    
     55200   600.86883      6595280.7      6724.9433      48.731617      2.3577398      153241.41      154663.52    
     55300   599.44045      6595283.1      6724.9433      48.731617      2.3577398      153242.6       154661.33    
     55400   613.43751      6594992.6      6724.9433      48.731617      2.3577398      153228.63      154680.5     
     55500   587.77478      6598054.1      6724.9433      48.731617      2.3577398      153313.89      154705.02    
     55600   599.50154      6597963.7      6724.9433      48.731617      2.3577398      153307.11      154725.99    
     55700   627.53098      6595471.5      6724.9433      48.731617      2.3577398      153234.97      154720.19    
     55800   586.3034       6597218.5      6724.9433      48.731617      2.3577398      153293.71      154681.35    
     55900   593.37387      6595280.8      6724.9433      48.731617      2.3577398      153244.38      154648.76    
     56000   587.42929      6596019.4      6724.9433      48.731617      2.3577398      153264.29      154654.6     
     56100   594.7218       6597210.5      6724.9433      48.731617      2.3577398      153290.55      154698.11    
     56200   617.02739      6596821.3      6724.9433      48.731617      2.3577398      153272.71      154733.06    
     56300   598.60053      6598230.2      6724.9433      48.731617      2.3577398      153314.83      154731.58    
     56400   606.63627      6596417.7      6724.9433      48.731617      2.3577398      153266.8       154702.56    
     56500   602.29525      6594869.8      6724.9433      48.731617      2.3577398      153231.21      154656.7     
     56600   590.90015      6594886.3      6724.9433      48.731617      2.3577398      153234.84      154633.36    
     56700   586.76552      6596732.6      6724.9433      48.731617      2.3577398      153281.54      154670.27    
     56800   608.92036      6597185.6      6724.9433      48.731617      2.3577398      153284.97      154726.14    
     56900   614.11045      6597584.8      6724.9433      48.731617      2.3577398      153291.93      154745.38    
     57000   603.16482      6597404.7      6724.9433      48.731617      2.3577398      153291.42      154718.97    
     57100   611.14078      6595008.4      6724.9433      48.731617      2.3577398      153230.65      154677.08    
     57200   594.01524      6594802.2      6724.9433      48.731617      2.3577398      153231.77      154637.67    
     57300   579.74215      6596066.6      6724.9433      48.731617      2.3577398      153268.68      154640.79    
     57400   596.36334      6596984.7      6724.9433      48.731617      2.3577398      153283.72      154695.17    
     57500   618.36768      6597526.4      6724.9433      48.731617      2.3577398      153289.52      154753.05    
     57600   628.48901      6596569.2      6724.9433      48.731617      2.3577398      153262.86      154750.34    
     57700   616.52428      6595047.4      6724.9433      48.731617      2.3577398      153230.13      154689.3     
     57800   575.78668      6596037.9      6724.9433      48.731617      2.3577398      153269.83      154632.58    
     57900   584.50391      6595327.7      6724.9433      48.731617      2.3577398      153248.83      154632.22    
     58000   602.27244      6596144.1      6724.9433      48.731617      2.3577398      153261.91      154687.35    
     58100   614.72697      6597585.3      6724.9433      48.731617      2.3577398      153290.61      154745.52    
     58200   632.21297      6596478.1      6724.9433      48.731617      2.3577398      153258.77      154755.07    
     58300   594.03106      6597490.2      6724.9433      48.731617      2.3577398      153297.57      154703.5     
     58400   586.19605      6595424.6      6724.9433      48.731617      2.3577398      153250.78      154638.16    
     58500   594.93497      6593771.8      6724.9433      48.731617      2.3577398      153206.63      154614.7     
     58600   571.61698      6597531.7      6724.9433      48.731617      2.3577398      153307.75      154660.63    
     58700   608.15622      6597994.3      6724.9433      48.731617      2.3577398      153304.86      154744.22    
     58800   642.47917      6596987.6      6724.9433      48.731617      2.3577398      153265.84      154786.44    
     58900   602.55751      6598144.5      6724.9433      48.731617      2.3577398      153310.21      154736.32    
     59000   604.58187      6594278        6724.9433      48.731617      2.3577398      153214.37      154645.27    
     59100   578.49701      6594451.1      6724.9433      48.731617      2.3577398      153229.11      154598.28    
     59200   581.32803      6595410.2      6724.9433      48.731617      2.3577398      153251.57      154627.44    
     59300   587.15197      6598575.4      6724.9433      48.731617      2.3577398      153327.35      154717       
     59400   617.59626      6599120.2      6724.9433      48.731617      2.3577398      153328.36      154790.06    
     59500   617.27587      6598497.2      6724.9433      48.731617      2.3577398      153312.31      154773.26    
     59600   599.06552      6595918.6      6724.9433      48.731617      2.3577398      153257.03      154674.88    
     59700   556.52904      6595660.1      6724.9433      48.731617      2.3577398      153268.04      154585.21    
     59800   579.61015      6594190.2      6724.9433      48.731617      2.3577398      153222.8       154594.6     
     59900   612.14692      6595484.5      6724.9433      48.731617      2.3577398      153241.31      154690.12    
     60000   627.20873      6598462.2      6724.9433      48.731617      2.3577398      153307.37      154791.83    
     60100   623.41205      6599259.1      6724.9433      48.731617      2.3577398      153329.33      154804.8     
     60200   616.34936      6596026.6      6724.9433      48.731617      2.3577398      153252.77      154711.52    
     60300   584.86359      6593951.6      6724.9433      48.731617      2.3577398      153216.56      154600.79    
     60400   568.11206      6593979.2      6724.9433      48.731617      2.3577398      153222.25      154566.83    
     60500   572.41084      6596915.7      6724.9433      48.731617      2.3577398      153291.26      154646.03    
     60600   613.48041      6598650.7      6724.9433      48.731617      2.3577398      153317.2       154769.16    
     60700   619.3167       6600006.3      6724.9433      48.731617      2.3577398      153349.04      154814.81    
     60800   623.32691      6597334.4      6724.9433      48.731617      2.3577398      153282.31      154757.58    
     60900   569.50363      6596890.7      6724.9433      48.731617      2.3577398      153291.75      154639.63    
     61000   582.81009      6592434.2      6724.9433      48.731617      2.3577398      153179.2       154558.58    
     61100   578.49873      6594141.8      6724.9433      48.731617      2.3577398      153222.42      154591.58    
     61200   619.85395      6596131.3      6724.9433      48.731617      2.3577398      153253.72      154720.77    
     61300   642.04878      6598958.6      6724.9433      48.731617      2.3577398      153315.34      154834.92    
     61400   619.89921      6599897.9      6724.9433      48.731617      2.3577398      153346.05      154813.2     
     61500   601.45275      6595802.6      6724.9433      48.731617      2.3577398      153253.4       154676.89    
     61600   576.70067      6593336.7      6724.9433      48.731617      2.3577398      153203.16      154568.08    
     61700   549.2714       6595067.4      6724.9433      48.731617      2.3577398      153257.27      154557.27    
     61800   604.76951      6594812.3      6724.9433      48.731617      2.3577398      153227.9       154659.25    
     61900   631.93643      6598636.2      6724.9433      48.731617      2.3577398      153310         154805.64    
     62000   629.89998      6600449.2      6724.9433      48.731617      2.3577398      153355.95      154846.78    
     62100   609.16629      6597720.6      6724.9433      48.731617      2.3577398      153296.72      154738.47    
     62200   584.16414      6593895.8      6724.9433      48.731617      2.3577398      153214.34      154596.91    
     62300   575.43069      6592583.4      6724.9433      48.731617      2.3577398      153184.57      154546.48    
     62400   565.05493      6595780.6      6724.9433      48.731617      2.3577398      153267.04      154604.39    
     62500   598.14717      6598788.3      6724.9433      48.731617      2.3577398      153327.52      154743.19    
     62600   633.33155      6600452.8      6724.9433      48.731617      2.3577398      153354.64      154853.58    
     62700   642.15465      6597622        6724.9433      48.731617      2.3577398      153282.53      154802.36    
     62800   611.27096      6594043.3      6724.9433      48.731617      2.3577398      153206.85      154653.58    
     62900   568.57283      6593496.5      6724.9433      48.731617      2.3577398      153211.15      154556.83    
     63000   580.78705      6593420.5      6724.9433      48.731617      2.3577398      153203.75      154578.34    
     63100   639.82383      6593086.6      6724.9433      48.731617      2.3577398      153172.5       154686.81    
     63200   620.82313      6599213.1      6724.9433      48.731617      2.3577398      153328.74      154798.08    
     63300   658.64333      6597397.1      6724.9433      48.731617      2.3577398      153269.18      154828.03    
     63400   630.87314      6595375.8      6724.9433      48.731617      2.3577398      153232.22      154725.35    
     63500   588.32482      6593383.5      6724.9433      48.731617      2.3577398      153201.28      154593.7     
     63600   583.53364      6592184.8      6724.9433      48.731617      2.3577398      153173.22      154554.31    
     63700   586.47629      6595452.2      6724.9433      48.731617      2.3577398      153251.51      154639.56    
     63800   617.07473      6598497.3      6724.9433      48.731617      2.3577398      153312.91      154773.38    
     63900   616.37719      6601102.2      6724.9433      48.731617      2.3577398      153375.75      154834.57    
     64000   605.44918      6598802        6724.9433      48.731617      2.3577398      153325.49      154758.45    
     64100   583.69263      6595095.7      6724.9433      48.731617      2.3577398      153242.94      154624.4     
     64200   563.77713      6594143.1      6724.9433      48.731617      2.3577398      153227.78      154562.11    
     64300   595.4771       6593601.7      6724.9433      48.731617      2.3577398      153202.46      154611.82    
     64400   605.53174      6597567.1      6724.9433      48.731617      2.3577398      153294.45      154727.6     
     64500   643.09673      6597735.9      6724.9433      48.731617      2.3577398      153284.65      154806.7     
     64600   619.79217      6598861.7      6724.9433      48.731617      2.3577398      153321.04      154787.94    
     64700   605.00042      6595713.1      6724.9433      48.731617      2.3577398      153250.06      154681.95    
     64800   564.74284      6594876.4      6724.9433      48.731617      2.3577398      153245.19      154581.81    
     64900   574.68548      6594047.9      6724.9433      48.731617      2.3577398      153220.34      154580.49    
     65000   600.27108      6596471.8      6724.9433      48.731617      2.3577398      153269.73      154690.43    
     65100   632.11062      6597776.5      6724.9433      48.731617      2.3577398      153288.94      154784.99    
     65200   600.21331      6600708.7      6724.9433      48.731617      2.3577398      153373.95      154794.52    
[...]
    384300   578.64956      6598716.4      6724.9433      48.731617      2.3577398      153333.44      154702.96    
    384400   601.16212      6598070.8      6724.9433      48.731617      2.3577398      153310.16      154732.97    
    384500   621.23072      6595715.7      6724.9433      48.731617      2.3577398      153243.85      154714.16    
    384600   583.69628      6597323.8      6724.9433      48.731617      2.3577398      153297.39      154678.86    
    384700   569.17258      6596063.3      6724.9433      48.731617      2.3577398      153272.54      154619.64    
    384800   573.49645      6592166.8      6724.9433      48.731617      2.3577398      153176.89      154534.22    
    384900   586.56936      6592571.3      6724.9433      48.731617      2.3577398      153180.67      154568.94    
    385000   578.77323      6597289.4      6724.9433      48.731617      2.3577398      153298.85      154668.67    
    385100   654.06616      6592976.6      6724.9433      48.731617      2.3577398      153164.91      154712.93    
    385200   597.77991      6597784.8      6724.9433      48.731617      2.3577398      153303         154717.8     
    385300   589.75646      6597303        6724.9433      48.731617      2.3577398      153294.95      154690.76    
    385400   564.63706      6596595        6724.9433      48.731617      2.3577398      153288.08      154624.44    
    385500   592.61518      6593243        6724.9433      48.731617      2.3577398      153195.89      154598.47    
    385600   595.95685      6596595.7      6724.9433      48.731617      2.3577398      153274.27      154684.76    
    385700   621.17382      6597360.8      6724.9433      48.731617      2.3577398      153284.6       154754.77    
    385800   606.79667      6597524.1      6724.9433      48.731617      2.3577398      153294.57      154730.72    
    385900   610.32401      6594788.7      6724.9433      48.731617      2.3577398      153225.08      154669.57    
    386000   589.79872      6594671.6      6724.9433      48.731617      2.3577398      153230.89      154626.8     
    386100   609.34983      6593771.7      6724.9433      48.731617      2.3577398      153200.98      154643.17    
    386200   607.04132      6598754.8      6724.9433      48.731617      2.3577398      153323.16      154759.88    
    386300   617.14486      6598675.1      6724.9433      48.731617      2.3577398      153317.68      154778.32    
    386400   606.12229      6596508.4      6724.9433      48.731617      2.3577398      153269.49      154704.04    
    386500   604.98327      6594337.2      6724.9433      48.731617      2.3577398      153216.77      154648.62    
    386600   603.97517      6594507.2      6724.9433      48.731617      2.3577398      153221.24      154650.71    
    386700   580.16583      6598537.3      6724.9433      48.731617      2.3577398      153327.77      154700.89    
    386800   631.6978       6598856.1      6724.9433      48.731617      2.3577398      153317.03      154812.11    
    386900   633.64953      6597919.2      6724.9433      48.731617      2.3577398      153292.06      154791.76    
    387000   618.16581      6596733.8      6724.9433      48.731617      2.3577398      153270.54      154733.59    
    387100   587.6464       6597063.4      6724.9433      48.731617      2.3577398      153290.79      154681.61    
    387200   604.2384       6594672.2      6724.9433      48.731617      2.3577398      153224.34      154654.43    
    387300   607.63372      6594574.1      6724.9433      48.731617      2.3577398      153220.7       154658.82    
    387400   610.40288      6598639.7      6724.9433      48.731617      2.3577398      153319.61      154764.29    
    387500   602.73666      6600746.3      6724.9433      48.731617      2.3577398      153373.2       154799.73    
    387600   635.7247       6595243.8      6724.9433      48.731617      2.3577398      153226.76      154731.37    
    387700   617.68947      6594068.4      6724.9433      48.731617      2.3577398      153205.4       154667.33    
    387800   602.68327      6595215.4      6724.9433      48.731617      2.3577398      153238.65      154665.06    
    387900   581.25579      6597659.1      6724.9433      48.731617      2.3577398      153306.9       154682.6     
    388000   606.84584      6599081.9      6724.9433      48.731617      2.3577398      153331.81      154768.07    
    388100   625.07261      6600054.5      6724.9433      48.731617      2.3577398      153348.57      154827.97    
    388200   606.52007      6599046.2      6724.9433      48.731617      2.3577398      153330.63      154766.12    
    388300   601.65914      6597270.5      6724.9433      48.731617      2.3577398      153289.37      154713.35    
    388400   612.7616       6595393.9      6724.9433      48.731617      2.3577398      153239.62      154689.88    
    388500   610.08245      6594826.4      6724.9433      48.731617      2.3577398      153226.22      154670.14    
    388600   582.76049      6596328.2      6724.9433      48.731617      2.3577398      153273.28      154652.54    
    388700   586.79439      6595570.9      6724.9433      48.731617      2.3577398      153254         154642.8     
    388800   604.93094      6595989.8      6724.9433      48.731617      2.3577398      153258.17      154689.89    
    388900   623.45188      6597453.2      6724.9433      48.731617      2.3577398      153284.94      154760.5     
    389000   625.16336      6597695.9      6724.9433      48.731617      2.3577398      153291.03      154770.65    
    389100   596.97423      6595730.9      6724.9433      48.731617      2.3577398      153253.76      154666.66    
    389200   581.04066      6595185.9      6724.9433      48.731617      2.3577398      153247.19      154622.38    
    389300   596.84721      6595580.1      6724.9433      48.731617      2.3577398      153249.22      154661.81    
    389400   602.4379       6597287.4      6724.9433      48.731617      2.3577398      153289.96      154715.79    
    389500   629.0424       6596018.7      6724.9433      48.731617      2.3577398      153248.62      154737.42    
    389600   600.70396      6596593        6724.9433      48.731617      2.3577398      153273.28      154695.01    
    389700   587.00592      6594150.1      6724.9433      48.731617      2.3577398      153220.17      154609.47    
    389800   586.4628       6594587.3      6724.9433      48.731617      2.3577398      153229.84      154617.86    
    389900   603.85639      6596603.5      6724.9433      48.731617      2.3577398      153272.59      154701.78    
    390000   628.01128      6596396.8      6724.9433      48.731617      2.3577398      153258.33      154744.69    
    390100   610.13111      6597063.7      6724.9433      48.731617      2.3577398      153280.35      154724.38    
    390200   607.88318      6595813.8      6724.9433      48.731617      2.3577398      153251.56      154690.27    
    390300   577.13382      6597130.8      6724.9433      48.731617      2.3577398      153294.75      154660.69    
    390400   592.49094      6595399.8      6724.9433      48.731617      2.3577398      153246.47      154648.76    
    390500   585.65832      6596654.6      6724.9433      48.731617      2.3577398      153281.12      154667.23    
    390600   622.46775      6595623.9      6724.9433      48.731617      2.3577398      153241.33      154714.57    
    390700   612.26016      6598063.9      6724.9433      48.731617      2.3577398      153304.27      154753.34    
    390800   607.9953       6598153.5      6724.9433      48.731617      2.3577398      153308.27      154747.25    
    390900   604.72913      6594926.3      6724.9433      48.731617      2.3577398      153230.64      154661.89    
    391000   600.14632      6593341.4      6724.9433      48.731617      2.3577398      153194.5       154614.91    
    391100   610.58498      6593573.8      6724.9433      48.731617      2.3577398      153196.14      154641.25    
    391200   609.28608      6596089.1      6724.9433      48.731617      2.3577398      153258.27      154700.31    
    391300   602.64291      6596901.4      6724.9433      48.731617      2.3577398      153281.02      154707.34    
    391400   618.79647      6595302.8      6724.9433      48.731617      2.3577398      153235.12      154699.66    
    391500   588.77882      6596632.9      6724.9433      48.731617      2.3577398      153279.68      154673.18    
    391600   598.39565      6594232.4      6724.9433      48.731617      2.3577398      153217.01      154633.27    
    391700   563.83821      6596148        6724.9433      48.731617      2.3577398      153276.45      154610.92    
    391800   617.35173      6593900.5      6724.9433      48.731617      2.3577398      153201.23      154662.35    
    391900   611.73187      6597812.5      6724.9433      48.731617      2.3577398      153297.83      154745.65    
    392000   613.64667      6597805.6      6724.9433      48.731617      2.3577398      153298.07      154750.43    
    392100   610.7728       6595367.9      6724.9433      48.731617      2.3577398      153240.99      154686.54    
    392200   581.90484      6595162        6724.9433      48.731617      2.3577398      153245.72      154622.95    
    392300   597.91983      6594243.8      6724.9433      48.731617      2.3577398      153217.66      154632.8     
    392400   598.90713      6595531        6724.9433      48.731617      2.3577398      153247.92      154665.39    
    392500   599.205        6597160.6      6724.9433      48.731617      2.3577398      153287.58      154705.76    
    392600   591.52452      6598737.6      6724.9433      48.731617      2.3577398      153329.98      154729.98    
    392700   617.74327      6597560.8      6724.9433      48.731617      2.3577398      153289.29      154751.34    
    392800   608.77471      6597206.3      6724.9433      48.731617      2.3577398      153285.64      154726.46    
    392900   582.72684      6596149.9      6724.9433      48.731617      2.3577398      153268.31      154647.48    
    393000   592.43092      6594101.5      6724.9433      48.731617      2.3577398      153215.8       154617.95    
    393100   589.66354      6596492.7      6724.9433      48.731617      2.3577398      153274.97      154670.56    
    393200   606.26628      6598702.8      6724.9433      48.731617      2.3577398      153321.74      154756.63    
    393300   590.36927      6599342.5      6724.9433      48.731617      2.3577398      153344.16      154741.43    
    393400   602.24238      6596650.5      6724.9433      48.731617      2.3577398      153273.6       154698.97    
    393500   569.53329      6597127.5      6724.9433      48.731617      2.3577398      153299.21      154647.16    
    393600   593.38818      6595184.9      6724.9433      48.731617      2.3577398      153242.78      154647.19    
    393700   612.6449       6598315.9      6724.9433      48.731617      2.3577398      153311.42      154761.4     
    393800   633.40614      6598082.4      6724.9433      48.731617      2.3577398      153297.3       154796.42    
    393900   607.80089      6597438.9      6724.9433      48.731617      2.3577398      153289.74      154728.26    
    394000   604.62085      6594909.4      6724.9433      48.731617      2.3577398      153231.55      154662.54    
    394100   588.69602      6596087.1      6724.9433      48.731617      2.3577398      153265.11      154658.42    
    394200   599.32407      6596143.1      6724.9433      48.731617      2.3577398      153263.28      154681.74    
    394300   634.8184       6596853        6724.9433      48.731617      2.3577398      153266.26      154768.72    
    394400   641.35604      6599115.7      6724.9433      48.731617      2.3577398      153318.75      154836.69    
    394500   621.9694       6598142.6      6724.9433      48.731617      2.3577398      153302.45      154774.5     
    394600   600.17291      6597654        6724.9433      48.731617      2.3577398      153299.51      154719.98    
    394700   627.7739       6594024        6724.9433      48.731617      2.3577398      153200.11      154685.9     
    394800   579.92724      6596338.6      6724.9433      48.731617      2.3577398      153275.14      154647.69    
    394900   618.44918      6593002.1      6724.9433      48.731617      2.3577398      153179.61      154643.33    
    395000   605.09281      6596944.9      6724.9433      48.731617      2.3577398      153279.82      154711.93    
    395100   616.17184      6598748.7      6724.9433      48.731617      2.3577398      153320.2       154778.53    
    395200   608.68179      6598550.3      6724.9433      48.731617      2.3577398      153318.45      154759.06    
    395300   583.41834      6596640.5      6724.9433      48.731617      2.3577398      153280.95      154661.77    
    395400   587.60877      6595448.4      6724.9433      48.731617      2.3577398      153249.35      154640.08    
    395500   584.506        6596890.1      6724.9433      48.731617      2.3577398      153286.86      154670.25    
    395600   597.59455      6597729.1      6724.9433      48.731617      2.3577398      153301.48      154715.85    
    395700   619.4295       6598035.8      6724.9433      48.731617      2.3577398      153300.41      154766.45    
    395800   626.67845      6600178.1      6724.9433      48.731617      2.3577398      153349.66      154832.86    
    395900   638.31008      6598736.6      6724.9433      48.731617      2.3577398      153310.21      154820.94    
    396000   625.32049      6595207.6      6724.9433      48.731617      2.3577398      153229.91      154709.9     
    396100   600.66541      6595325.2      6724.9433      48.731617      2.3577398      153242.28      154663.91    
    396200   584.0573       6596108.2      6724.9433      48.731617      2.3577398      153268.02      154650.35    
    396300   595.85891      6596604.9      6724.9433      48.731617      2.3577398      153275.61      154685.87    
    396400   615.45         6598629.3      6724.9433      48.731617      2.3577398      153318.28      154774.9     
    396500   625.00047      6598271.2      6724.9433      48.731617      2.3577398      153304.61      154783.84    
    396600   604.02369      6596597.3      6724.9433      48.731617      2.3577398      153271.87      154701.45    
    396700   577.19672      6597206.3      6724.9433      48.731617      2.3577398      153298.34      154664.42    
    396800   597.94882      6595886.7      6724.9433      48.731617      2.3577398      153257.56      154672.76    
    396900   601.44059      6596644.9      6724.9433      48.731617      2.3577398      153273.89      154697.36    
    397000   589.36126      6599308        6724.9433      48.731617      2.3577398      153343.58      154738.46    
    397100   605.88256      6599616.1      6724.9433      48.731617      2.3577398      153344.45      154778.43    
    397200   610.45417      6598219        6724.9433      48.731617      2.3577398      153308.63      154753.43    
    397300   593.96017      6595439.8      6724.9433      48.731617      2.3577398      153248.04      154653.8     
    397400   598.91278      6594312.9      6724.9433      48.731617      2.3577398      153219.57      154637.06    
    397500   598.20684      6595933.4      6724.9433      48.731617      2.3577398      153257.28      154673.09    
    397600   625.51003      6597423.2      6724.9433      48.731617      2.3577398      153283.51      154763.94    
    397700   609.8842       6599477.6      6724.9433      48.731617      2.3577398      153339.61      154783.06    
    397800   600.2589       6598556.3      6724.9433      48.731617      2.3577398      153321.41      154742.08    
    397900   590.03423      6598191.6      6724.9433      48.731617      2.3577398      153316.28      154712.75    
    398000   591.70915      6596927        6724.9433      48.731617      2.3577398      153283.96      154684.4     
    398100   590.31871      6595801        6724.9433      48.731617      2.3577398      153257.64      154654.78    
    398200   593.82806      6594580.5      6724.9433      48.731617      2.3577398      153227.33      154632.78    
    398300   588.3945       6596212.9      6724.9433      48.731617      2.3577398      153268.65      154661.24    
    398400   609.15728      6597966.1      6724.9433      48.731617      2.3577398      153303.98      154745.71    
    398500   622.46443      6597650.6      6724.9433      48.731617      2.3577398      153290.51      154763.73    
    398600   611.11738      6596061.5      6724.9433      48.731617      2.3577398      153256.18      154702.55    
    398700   589.22687      6594077.5      6724.9433      48.731617      2.3577398      153216.68      154611.24    
    398800   613.51648      6592522.1      6724.9433      48.731617      2.3577398      153169.66      154621.71    
    398900   604.68834      6595069.8      6724.9433      48.731617      2.3577398      153235.2       154666.36    
    399000   604.51898      6597084.3      6724.9433      48.731617      2.3577398      153283.18      154713.93    
    399100   615.49079      6597262.2      6724.9433      48.731617      2.3577398      153283.9       154740.62    
    399200   604.90382      6596271.7      6724.9433      48.731617      2.3577398      153263.99      154695.66    
    399300   565.38544      6595220.9      6724.9433      48.731617      2.3577398      153253.55      154591.68    
    399400   591.73854      6593870.5      6724.9433      48.731617      2.3577398      153210.52      154611.02    
    399500   614.28651      6595261.9      6724.9433      48.731617      2.3577398      153236.03      154689.9     
    399600   605.58531      6597489.7      6724.9433      48.731617      2.3577398      153292.61      154725.89    
    399700   611.65174      6596812.1      6724.9433      48.731617      2.3577398      153273.88      154721.52    
    399800   603.11233      6595867.2      6724.9433      48.731617      2.3577398      153255.64      154683.06    
    399900   570.08572      6594171.4      6724.9433      48.731617      2.3577398      153226.41      154575.66    
    400000   567.4917       6592303.2      6724.9433      48.731617      2.3577398      153182.03      154525.15    
    400100   564.54986      6595090.4      6724.9433      48.731617      2.3577398      153250.07      154586.23    
Loop time of 24.0815 on 64 procs for 400000 steps with 795 atoms

Performance: 358.782 ns/day, 0.067 hours/ns, 16610.257 timesteps/s
99.4% CPU use with 64 MPI tasks x 1 OpenMP threads

MPI task timing breakdown:
Section |  min time  |  avg time  |  max time  |%varavg| %total
---------------------------------------------------------------
Pair    | 1.9557     | 2.7499     | 3.5958     |  22.6 | 11.42
Neigh   | 0.12007    | 0.15697    | 0.19534    |   4.2 |  0.65
Comm    | 13.737     | 15.075     | 17.92      |  21.6 | 62.60
Output  | 0.30537    | 0.31039    | 0.35898    |   1.1 |  1.29
Modify  | 3.1029     | 5.2584     | 6.5152     |  35.9 | 21.84
Other   |            | 0.5306     |            |       |  2.20

Nlocal:        12.4219 ave          16 max           9 min
Histogram: 3 2 18 0 13 11 0 7 7 3
Nghost:        646.547 ave         679 max         616 min
Histogram: 3 3 3 12 12 13 8 7 2 1
Neighs:        830.641 ave        1107 max         608 min
Histogram: 4 2 18 8 10 6 3 6 3 4

Total # of neighbors = 53161
Ave neighs/atom = 66.869182
Neighbor list builds = 6006
Dangerous builds = 19

write_data graphene_single_layer_LJ_795C_after_temp_600K.data ### MODIFY FILE NAME ###
System init for write_data ...
Generated 0 of 0 mixed pair_coeff terms from geometric mixing rule
Total wall time: 0:00:24
