# System definition
read_data graphene_single_layer_x-45_y_45_795_C_nv.data  ### MODIFY FILE NAME ###
Reading data file ...
  orthogonal box = (-1.4464652 -1.4423034 -1.42) to (47.285152 47.149102 1.42)
  1 by 1 by 1 MPI processor grid
  reading atoms ...
  795 atoms
  reading velocities ...
  795 velocities
  read_data CPU = 0.028 seconds
pair_style lj/cut 6
pair_coeff      1 1 0.066047 3.4

# Virtual force wall to keep the cylinder shape
#region myCylinder cylinder z 0. 0. 20.3 -22.079997 505.920003 units box
#fix wall all wall/region myCylinder lj93 1.0 1.0 2.5

# Minimization
timestep 0.25
thermo 100
thermo_style custom step temp press vol lx density pe etotal
dump 2 all custom 1000 graphene_single_layer_LJ_795C_after_temp_1300K_nv.lammpstrj id type x y z ### MODIFY FILE NAME ###
min_style cg
minimize 1.0e-6 1.0e-6 100 1000
WARNING: Using 'neigh_modify every 1 delay 0 check yes' setting during minimization (../min.cpp:187)
  generated 0 of 0 mixed pair_coeff terms from geometric mixing rule
Neighbor list info ...
  update every 1 steps, delay 0 steps, check yes
  max neighbors/atom: 10000, page size: 100000
  master list distance cutoff = 6.4
  ghost atom cutoff = 6.4
  binsize = 3.2, bins = 16 16 1
  1 neighbor lists, perpetual/occasional/extra = 1 0 0
  (1) pair lj/cut, perpetual
      attributes: half, newton on
      pair build: half/bin/atomonly/newton
      stencil: half/bin/3d
      bin: standard
Per MPI rank memory allocation (min/avg/max) = 5.847 | 5.847 | 5.847 Mbytes
Step Temp Press Volume Lx Density PotEng TotEng 
       0          923 3.5764745e+08    6724.9433    48.731617    2.3577398    8739313.6    8741498.1 
     100          923     47792497    6724.9433    48.731617    2.3577398    1156645.3    1158829.8 
Loop time of 0.203282 on 1 procs for 100 steps with 795 atoms

100.0% CPU use with 1 MPI tasks x no OpenMP threads

Minimization stats:
  Stopping criterion = max iterations
  Energy initial, next-to-last, final = 
       8739313.5743934   1166159.30364263   1156645.25969717
  Force two-norm initial, final = 757147.49 41890.076
  Force max component initial, final = 127132.22 10243.229
  Final line search alpha, max atom move = 3.9224736e-06 0.040178794
  Iterations, force evaluations = 100 123

MPI task timing breakdown:
Section |  min time  |  avg time  |  max time  |%varavg| %total
---------------------------------------------------------------
Pair    | 0.13651    | 0.13651    | 0.13651    |   0.0 | 67.15
Neigh   | 0.057133   | 0.057133   | 0.057133   |   0.0 | 28.11
Comm    | 0.0057326  | 0.0057326  | 0.0057326  |   0.0 |  2.82
Output  | 7.42e-05   | 7.42e-05   | 7.42e-05   |   0.0 |  0.04
Modify  | 0          | 0          | 0          |   0.0 |  0.00
Other   |            | 0.003833   |            |       |  1.89

Nlocal:            795 ave         795 max         795 min
Histogram: 1 0 0 0 0 0 0 0 0 0
Nghost:           5526 ave        5526 max        5526 min
Histogram: 1 0 0 0 0 0 0 0 0 0
Neighs:          50620 ave       50620 max       50620 min
Histogram: 1 0 0 0 0 0 0 0 0 0

Total # of neighbors = 50620
Ave neighs/atom = 63.672956
Neighbor list builds = 37
Dangerous builds = 0
#timestep 0.25
fix 1 all nvt temp 1300.0 1300.0 $(100.0*dt) ### MODIFY INITIAL TEMP, FINAL TEMP ###
fix 1 all nvt temp 1300.0 1300.0 25 
run 400000
  generated 0 of 0 mixed pair_coeff terms from geometric mixing rule
Per MPI rank memory allocation (min/avg/max) = 4.725 | 4.725 | 4.725 Mbytes
Step Temp Press Volume Lx Density PotEng TotEng 
     100          923     47792497    6724.9433    48.731617    2.3577398    1156645.3    1158829.8 
     200    26647.629     11542500    6724.9433    48.731617    2.3577398    263265.76    326334.39 
     300    7121.0149    8573179.7    6724.9433    48.731617    2.3577398    198715.64     215569.4 
     400    3507.2789    7802428.3    6724.9433    48.731617    2.3577398    181402.44    189703.34 
     500    2167.3543    7485911.8    6724.9433    48.731617    2.3577398    174239.02    179368.64 
     600    1537.4299    7300045.6    6724.9433    48.731617    2.3577398    169972.08    173610.81 
     700    1387.5502    7181736.2    6724.9433    48.731617    2.3577398    167157.51    170441.51 
     800    1272.5433    7097186.4    6724.9433    48.731617    2.3577398    165151.43    168163.24 
     900    1248.4376    7028267.4    6724.9433    48.731617    2.3577398    163489.75    166444.51 
    1000    1298.9975    6972689.3    6724.9433    48.731617    2.3577398    162125.83    165200.25 
    1100    1401.9624    6915666.2    6724.9433    48.731617    2.3577398    160702.17    164020.28 
    1200    1132.2836    6886661.7    6724.9433    48.731617    2.3577398    160101.56    162781.41 
    1300    1176.6943    6854101.6    6724.9433    48.731617    2.3577398    159293.81    162078.77 
    1400    1225.7844    6836468.7    6724.9433    48.731617    2.3577398    158849.96     161751.1 
    1500    1337.6379    6822956.8    6724.9433    48.731617    2.3577398    158479.03    161644.91 
    1600     1327.497    6811627.7    6724.9433    48.731617    2.3577398     158208.6    161350.47 
    1700    1273.7058    6802740.8    6724.9433    48.731617    2.3577398    158013.37    161027.93 
    1800    1390.7898    6775571.7    6724.9433    48.731617    2.3577398    157311.18    160602.85 
    1900    1251.0554    6750830.9    6724.9433    48.731617    2.3577398    156763.41    159724.36 
    2000    1233.1323    6724817.2    6724.9433    48.731617    2.3577398    156143.08    159061.61 
    2100    1234.3623      6711952    6724.9433    48.731617    2.3577398    155825.74    158747.19 
    2200    1329.8428    6702657.3    6724.9433    48.731617    2.3577398     155566.7    158714.12 
    2300    1458.1639      6690855    6724.9433    48.731617    2.3577398    155232.76    158683.89 
    2400    1312.3985    6687543.9    6724.9433    48.731617    2.3577398    155209.58    158315.72 
    2500    1291.0652    6670978.6    6724.9433    48.731617    2.3577398    154815.53    157871.18 
    2600    1225.8218    6657337.3    6724.9433    48.731617    2.3577398    154510.01    157411.24 
    2700    1350.8132    6638853.9    6724.9433    48.731617    2.3577398    154012.71    157209.77 
    2800    1368.9388    6625957.7    6724.9433    48.731617    2.3577398    153693.98    156933.94 
    2900    1280.5546    6604589.2    6724.9433    48.731617    2.3577398    153210.96    156241.73 
    3000    1265.7665    6576837.2    6724.9433    48.731617    2.3577398    152543.33     155539.1 
    3100    1336.5273    6548039.7    6724.9433    48.731617    2.3577398    151816.96     154980.2 
    3200    1273.7498    6533551.9    6724.9433    48.731617    2.3577398    151490.19    154504.85 
    3300    1299.4231    6516778.1    6724.9433    48.731617    2.3577398    151070.59    154146.02 
    3400    1229.6797    6517188.8    6724.9433    48.731617    2.3577398     151109.4    154019.76 
    3500     1311.711    6521520.9    6724.9433    48.731617    2.3577398    151183.76    154288.27 
    3600    1389.1073    6523373.6    6724.9433    48.731617    2.3577398    151197.33    154485.02 
    3700    1341.2137    6516880.2    6724.9433    48.731617    2.3577398    151059.19    154233.53 
    3800    1236.1046    6510218.7    6724.9433    48.731617    2.3577398    150939.63    153865.19 
    3900    1254.8535    6501746.9    6724.9433    48.731617    2.3577398    150726.68    153696.62 
    4000     1235.601    6505642.5    6724.9433    48.731617    2.3577398    150829.92     153754.3 
    4100    1338.5222    6506663.4    6724.9433    48.731617    2.3577398    150813.65    153981.62 
    4200    1331.6645    6510999.7    6724.9433    48.731617    2.3577398    150921.27       154073 
    4300    1348.7344    6505468.9    6724.9433    48.731617    2.3577398    150782.08    153974.22 
    4400    1391.5051    6488639.7    6724.9433    48.731617    2.3577398    150355.79    153649.16 
    4500    1233.2842    6487323.2    6724.9433    48.731617    2.3577398    150384.85    153303.75 
    4600    1232.8045    6489510.1    6724.9433    48.731617    2.3577398    150436.27    153354.02 
    4700    1297.8001    6500884.3    6724.9433    48.731617    2.3577398    150689.13    153760.71 
    4800    1430.2698    6508318.9    6724.9433    48.731617    2.3577398    150816.29     154201.4 
    4900    1346.4077    6515420.8    6724.9433    48.731617    2.3577398    151023.37       154210 
    5000    1327.3083    6502905.5    6724.9433    48.731617    2.3577398     150725.5    153866.93 
    5100    1258.5509    6491369.2    6724.9433    48.731617    2.3577398    150473.96    153452.66 
    5200    1147.1093    6489539.2    6724.9433    48.731617    2.3577398    150472.03    153186.97 
    5300    1280.1786    6487267.8    6724.9433    48.731617    2.3577398    150365.52     153395.4 
    5400    1332.3505    6507557.2    6724.9433    48.731617    2.3577398    150838.36    153991.72 
    5500    1477.8293    6513689.5    6724.9433    48.731617    2.3577398    150930.52     154428.2 
    5600    1351.9243    6513278.8    6724.9433    48.731617    2.3577398    150968.75    154168.43 
    5700    1262.2229    6497341.7    6724.9433    48.731617    2.3577398    150617.47    153604.85 
    5800    1182.2027    6489365.4    6724.9433    48.731617    2.3577398    150455.57    153253.57 
    5900    1203.8459    6486590.7    6724.9433    48.731617    2.3577398       150380    153229.22 
    6000    1246.3268    6499444.4    6724.9433    48.731617    2.3577398    150673.98    153623.74 
    6100     1371.446    6514013.4    6724.9433    48.731617    2.3577398     150978.2    154224.09 
    6200    1436.7737    6516296.8    6724.9433    48.731617    2.3577398    151008.46    154408.96 
    6300    1333.4286    6504377.8    6724.9433    48.731617    2.3577398    150759.78    153915.69 
    6400    1211.9143    6489488.9    6724.9433    48.731617    2.3577398    150446.79     153315.1 
    6500    1176.7293    6486630.9    6724.9433    48.731617    2.3577398    150390.12    153175.16 
    6600    1274.1178    6490799.2    6724.9433    48.731617    2.3577398       150455    153470.53 
    6700    1285.8038    6509606.6    6724.9433    48.731617    2.3577398    150905.84    153949.03 
    6800    1436.5039    6513992.5    6724.9433    48.731617    2.3577398    150955.34     154355.2 
    6900    1417.6233    6510938.7    6724.9433    48.731617    2.3577398    150886.35    154241.53 
    7000    1249.0865    6499362.8    6724.9433    48.731617    2.3577398    150671.02    153627.31 
    7100    1164.4268    6488185.8    6724.9433    48.731617    2.3577398     150433.1    153189.03 
    7200    1210.9118      6487656    6724.9433    48.731617    2.3577398    150402.05    153267.99 
    7300     1317.437    6499340.4    6724.9433    48.731617    2.3577398    150643.77    153761.84 
    7400    1399.2576    6510054.1    6724.9433    48.731617    2.3577398    150872.52    154184.23 
    7500    1376.1875    6514225.5    6724.9433    48.731617    2.3577398     150980.1    154237.21 
    7600    1317.0913    6505826.7    6724.9433    48.731617    2.3577398    150803.19    153920.44 
    7700    1259.3194    6491628.1    6724.9433    48.731617    2.3577398    150478.67    153459.18 
    7800    1165.5283    6490373.3    6724.9433    48.731617    2.3577398    150486.21    153244.74 
    7900    1228.3814    6496294.1    6724.9433    48.731617    2.3577398    150604.82    153512.11 
    8000     1351.177    6507333.2    6724.9433    48.731617    2.3577398    150825.13    154023.04 
    8100    1388.4969    6512568.8    6724.9433    48.731617    2.3577398    150938.82    154225.06 
    8200    1325.9076    6507665.6    6724.9433    48.731617    2.3577398    150843.35    153981.46 
    8300    1325.7113    6494103.8    6724.9433    48.731617    2.3577398    150513.75    153651.39 
    8400    1260.3912    6490612.2    6724.9433    48.731617    2.3577398    150453.85     153436.9 
    8500     1222.543    6494063.6    6724.9433    48.731617    2.3577398    150552.27    153445.74 
    8600    1303.3324    6499054.2    6724.9433    48.731617    2.3577398    150642.07    153726.75 
    8700    1408.5837    6505530.3    6724.9433    48.731617    2.3577398    150758.78    154092.56 
    8800    1366.4658    6509488.8    6724.9433    48.731617    2.3577398    150872.15    154106.26 
    8900    1252.0083    6504436.4    6724.9433    48.731617    2.3577398    150791.88    153755.09 
    9000    1238.5578      6494508    6724.9433    48.731617    2.3577398    150557.57    153488.94 
    9100    1285.7445    6490339.9    6724.9433    48.731617    2.3577398    150438.06    153481.11 
    9200    1334.2043      6494171    6724.9433    48.731617    2.3577398    150513.37    153671.12 
    9300    1325.1782    6504659.2    6724.9433    48.731617    2.3577398    150771.28    153907.67 
    9400    1287.4018    6512514.6    6724.9433    48.731617    2.3577398     150976.5    154023.48 
    9500    1396.6609    6499763.9    6724.9433    48.731617    2.3577398    150624.12    153929.68 
    9600    1263.7134      6498179    6724.9433    48.731617    2.3577398    150637.83    153628.74 
    9700     1291.338    6490742.5    6724.9433    48.731617    2.3577398    150446.11     153502.4 
    9800    1301.9223    6495234.7    6724.9433    48.731617    2.3577398    150549.74    153631.09 
    9900    1373.6003    6497442.8    6724.9433    48.731617    2.3577398    150576.43    153827.42 
   10000    1361.1812    6500805.2    6724.9433    48.731617    2.3577398    150662.63    153884.22 
   10100    1320.7143    6501682.5    6724.9433    48.731617    2.3577398       150699    153824.81 
   10200    1359.0724    6496808.8    6724.9433    48.731617    2.3577398    150566.74    153783.34 
   10300    1278.2136    6498872.1    6724.9433    48.731617    2.3577398    150648.62    153673.85 
   10400     1275.932    6499265.4    6724.9433    48.731617    2.3577398    150659.21    153679.04 
   10500    1368.2835    6496688.9    6724.9433    48.731617    2.3577398    150559.99    153798.39 
   10600    1313.5911    6501708.6    6724.9433    48.731617    2.3577398    150704.18    153813.14 
   10700    1276.9219    6501446.2    6724.9433    48.731617    2.3577398     150711.1    153733.27 
   10800    1251.3619    6501227.8    6724.9433    48.731617    2.3577398    150716.07    153677.75 
   10900    1303.3699    6500002.5    6724.9433    48.731617    2.3577398    150666.81    153751.58 
   11000    1273.8245    6504482.6    6724.9433    48.731617    2.3577398    150787.69    153802.53 
   11100    1286.3162    6503283.6    6724.9433    48.731617    2.3577398    150752.01    153796.42 
   11200    1298.2448    6501980.4    6724.9433    48.731617    2.3577398    150715.95    153788.58 
   11300    1298.2483    6498864.6    6724.9433    48.731617    2.3577398    150639.87    153712.52 
   11400    1258.9177    6498309.3    6724.9433    48.731617    2.3577398    150642.55    153622.11 
   11500    1251.6422    6500751.5    6724.9433    48.731617    2.3577398    150704.42    153666.76 
   11600    1349.8471    6502088.4    6724.9433    48.731617    2.3577398    150698.12    153892.89 
   11700    1396.3428    6501922.6    6724.9433    48.731617    2.3577398     150676.4    153981.21 
   11800    1286.6515    6502561.1    6724.9433    48.731617    2.3577398    150734.04    153779.24 
   11900    1253.1768    6496851.4    6724.9433    48.731617    2.3577398    150609.15    153575.13 
   12000     1256.568    6496219.1    6724.9433    48.731617    2.3577398    150592.13    153566.13 
   12100    1330.1492    6495698.8    6724.9433    48.731617    2.3577398    150552.66     153700.8 
   12200    1303.1265    6505453.6    6724.9433    48.731617    2.3577398    150797.45    153881.64 
   12300    1354.7757    6507421.6    6724.9433    48.731617    2.3577398    150826.35    154032.79 
   12400    1382.4917    6501672.3    6724.9433    48.731617    2.3577398    150676.32    153948.35 
   12500    1236.6822    6498915.4    6724.9433    48.731617    2.3577398    150666.16    153593.09 
   12600    1216.3154    6492767.3    6724.9433    48.731617    2.3577398    150523.45    153402.18 
   12700     1214.051    6499122.4    6724.9433    48.731617    2.3577398    150679.35    153552.72 
   12800    1327.0202    6503996.6    6724.9433    48.731617    2.3577398     150754.3    153895.04 
   12900     1391.552    6506878.4    6724.9433    48.731617    2.3577398     150797.9    154091.38 
   13000    1348.8856    6507102.1    6724.9433    48.731617    2.3577398    150821.45    154013.94 
   13100     1337.579    6495955.4    6724.9433    48.731617    2.3577398    150553.82    153719.55 
   13200    1199.4712    6494525.4    6724.9433    48.731617    2.3577398     150574.9    153413.76 
   13300    1212.2029    6492576.9    6724.9433    48.731617    2.3577398    150520.34    153389.34 
   13400    1242.8617      6503712    6724.9433    48.731617    2.3577398    150780.34     153721.9 
   13500    1413.1088    6506665.6    6724.9433    48.731617    2.3577398    150783.97    154128.47 
   13600    1431.3067    6506703.1    6724.9433    48.731617    2.3577398    150777.56    154165.12 
   13700    1247.2013    6507244.5    6724.9433    48.731617    2.3577398    150863.86    153815.69 
   13800    1214.2834    6495503.5    6724.9433    48.731617    2.3577398    150591.37    153465.29 
   13900    1240.3873    6488909.1    6724.9433    48.731617    2.3577398    150421.78    153357.48 
   14000    1261.2581    6495086.9    6724.9433    48.731617    2.3577398     150563.7     153548.8 
   14100    1305.0698      6508478    6724.9433    48.731617    2.3577398    150873.19    153961.98 
   14200    1354.9694      6515993    6724.9433    48.731617    2.3577398    151033.27    154240.16 
   14300    1328.0956    6509712.2    6724.9433    48.731617    2.3577398    150892.81     154036.1 
   14400    1275.4529    6494207.2    6724.9433    48.731617    2.3577398     150535.8    153554.49 
   14500    1146.2625    6493443.9    6724.9433    48.731617    2.3577398    150568.69    153281.62 
   14600    1236.2852    6492852.6    6724.9433    48.731617    2.3577398    150519.11    153445.11 
   14700    1322.3639    6502322.7    6724.9433    48.731617    2.3577398    150715.82    153845.54 
   14800    1416.5927    6508523.3    6724.9433    48.731617    2.3577398    150829.53    154182.27 
   14900    1400.6195    6510032.7    6724.9433    48.731617    2.3577398    150869.65    154184.59 
   15000    1283.9187    6502387.8    6724.9433    48.731617    2.3577398    150732.08    153770.81 
   15100    1224.7145    6489923.6    6724.9433    48.731617    2.3577398    150450.55    153349.16 
   15200    1159.4982    6492546.7    6724.9433    48.731617    2.3577398    150541.52    153285.78 
   15300    1271.6602      6499228    6724.9433    48.731617    2.3577398    150658.87    153668.58 
   15400    1383.9133    6507946.3    6724.9433    48.731617    2.3577398    150827.85    154103.25 
   15500    1398.4836    6510784.8    6724.9433    48.731617    2.3577398    150890.73    154200.61 
   15600     1327.861    6505175.5    6724.9433    48.731617    2.3577398    150782.11    153924.84 
   15700    1247.6958    6494334.5    6724.9433    48.731617    2.3577398    150549.23    153502.23 
   15800    1215.2425    6488379.3    6724.9433    48.731617    2.3577398    150419.73    153295.92 
   15900    1259.3456    6492511.1    6724.9433    48.731617    2.3577398    150501.05    153481.62 
   16000    1327.1306      6506096    6724.9433    48.731617    2.3577398    150804.94    153945.95 
   16100    1391.1069    6512665.4    6724.9433    48.731617    2.3577398    150939.57    154231.99 
   16200    1355.6412    6507456.4    6724.9433    48.731617    2.3577398    150826.97    154035.45 
   16300    1297.0365    6495722.8    6724.9433    48.731617    2.3577398    150564.61    153634.38 
   16400    1215.2783    6491510.2    6724.9433    48.731617    2.3577398    150495.17    153371.45 
   16500    1253.5473    6490364.5    6724.9433    48.731617    2.3577398    150452.26    153419.11 
   16600    1291.9114    6500489.1    6724.9433    48.731617    2.3577398    150682.61    153740.26 
   16700    1406.6102    6507088.4    6724.9433    48.731617    2.3577398    150797.28    154126.39 
   16800    1393.0569    6510120.3    6724.9433    48.731617    2.3577398    150877.76    154174.79 
   16900    1313.6018    6501363.1    6724.9433    48.731617    2.3577398    150694.39    153803.37 
   17000    1190.3497    6495508.5    6724.9433    48.731617    2.3577398    150599.76    153417.03 
   17100    1208.0595    6492166.3    6724.9433    48.731617    2.3577398    150514.46    153373.65 
   17200    1276.8478    6496883.3    6724.9433    48.731617    2.3577398    150601.59    153623.59 
   17300    1322.1801    6508138.2    6724.9433    48.731617    2.3577398    150856.56    153985.85 
   17400    1413.9155      6507322    6724.9433    48.731617    2.3577398    150801.32    154147.72 
   17500    1376.0745    6502944.5    6724.9433    48.731617    2.3577398    150708.48    153965.32 
   17600    1296.6923    6493846.8    6724.9433    48.731617    2.3577398    150520.62    153589.59 
   17700    1213.1908    6491579.4    6724.9433    48.731617    2.3577398    150496.24    153367.58 
   17800    1247.6286    6494542.9    6724.9433    48.731617    2.3577398    150555.32    153508.16 
   17900    1307.0555    6504146.2    6724.9433    48.731617    2.3577398    150765.86    153859.35 
   18000    1392.2114    6507665.8    6724.9433    48.731617    2.3577398    150817.41    154112.45 
   18100    1320.2341    6509929.9    6724.9433    48.731617    2.3577398    150899.91    154024.59 
   18200     1299.831    6499342.5    6724.9433    48.731617    2.3577398    150651.87    153728.27 
   18300    1245.7895    6492839.3    6724.9433    48.731617    2.3577398    150514.11     153462.6 
   18400    1234.8971    6493007.9    6724.9433    48.731617    2.3577398    150524.21    153446.92 
   18500    1294.7419    6499478.7    6724.9433    48.731617    2.3577398    150655.81    153720.15 
   18600    1425.4905    6501698.8    6724.9433    48.731617    2.3577398    150659.93    154033.73 
   18700    1323.9606    6510718.6    6724.9433    48.731617    2.3577398    150919.42    154052.92 
   18800    1317.9588    6500951.7    6724.9433    48.731617    2.3577398    150683.35    153802.65 
   18900    1252.3584    6495677.2    6724.9433    48.731617    2.3577398     150582.4    153546.44 
   19000    1248.3078    6493651.2    6724.9433    48.731617    2.3577398    150534.38    153488.83 
   19100    1293.3675      6495926    6724.9433    48.731617    2.3577398    150571.34    153632.43 
   19200    1340.6677    6502381.1    6724.9433    48.731617    2.3577398    150707.94    153880.98 
   19300    1404.4345    6504569.2    6724.9433    48.731617    2.3577398    150737.54    154061.51 
   19400    1348.3697      6504435    6724.9433    48.731617    2.3577398    150756.29    153947.57 
   19500    1284.2786      6497132    6724.9433    48.731617    2.3577398    150603.93    153643.51 
   19600     1219.101    6494953.6    6724.9433    48.731617    2.3577398    150577.13    153462.45 
   19700    1228.0073    6498171.9    6724.9433    48.731617    2.3577398    150651.25    153557.65 
   19800    1339.9681    6498674.2    6724.9433    48.731617    2.3577398    150619.98    153791.37 
   19900    1350.9477    6505485.7    6724.9433    48.731617    2.3577398    150780.59    153977.97 
   20000    1395.4686    6502527.8    6724.9433    48.731617    2.3577398    150689.54    153992.29 
   20100    1318.9527    6500525.8    6724.9433    48.731617    2.3577398    150673.79    153795.44 
   20200    1260.7141    6495376.3    6724.9433    48.731617    2.3577398    150570.11    153553.92 
   20300    1228.7609    6495369.7    6724.9433    48.731617    2.3577398    150582.89    153491.08 
   20400    1281.8338    6499029.2    6724.9433    48.731617    2.3577398    150650.12    153683.92 
   20500    1316.8699    6505862.4    6724.9433    48.731617    2.3577398    150804.68     153921.4 
   20600    1355.2207    6505353.5    6724.9433    48.731617    2.3577398    150775.44    153982.93 
   20700    1370.5315    6499345.7    6724.9433    48.731617    2.3577398     150624.9    153868.62 
   20800    1308.6522    6495810.7    6724.9433    48.731617    2.3577398    150562.15    153659.42 
   20900    1256.8776    6495020.2    6724.9433    48.731617    2.3577398    150564.14    153538.87 
   21000    1309.3897    6494106.5    6724.9433    48.731617    2.3577398    150521.13    153620.15 
   21100    1331.6972    6500553.8    6724.9433    48.731617    2.3577398    150668.17    153819.98 
   21200     1323.104    6506728.2    6724.9433    48.731617    2.3577398    150821.91    153953.38 
   21300     1375.199    6499602.1    6724.9433    48.731617    2.3577398    150629.56    153884.33 
   21400    1307.0315    6498597.4    6724.9433    48.731617    2.3577398    150629.42    153722.86 
   21500    1299.6834    6494262.2    6724.9433    48.731617    2.3577398    150529.37    153605.41 
   21600    1319.6817      6492816    6724.9433    48.731617    2.3577398    150485.92    153609.29 
   21700    1325.0993    6497190.2    6724.9433    48.731617    2.3577398    150589.01     153725.2 
   21800    1340.2893    6501989.6    6724.9433    48.731617    2.3577398    150700.49    153872.64 
   21900    1359.3349    6502473.1    6724.9433    48.731617    2.3577398    150703.29    153920.52 
   22000    1310.7096    6501687.6    6724.9433    48.731617    2.3577398    150704.89    153807.03 
   22100    1305.8838    6496173.4    6724.9433    48.731617    2.3577398     150572.2    153662.92 
   22200    1303.8468    6494242.5    6724.9433    48.731617    2.3577398    150527.89    153613.78 
   22300    1295.7409    6498129.6    6724.9433    48.731617    2.3577398    150624.48    153691.19 
   22400    1331.5137    6500232.1    6724.9433    48.731617    2.3577398    150660.51    153811.89 
   22500    1296.5015    6505441.5    6724.9433    48.731617    2.3577398     150799.7    153868.22 
   22600    1324.9888    6501779.8    6724.9433    48.731617    2.3577398    150701.59    153837.53 
   22700      1311.14    6498993.3    6724.9433    48.731617    2.3577398    150639.33    153742.49 
   22800    1340.6298    6492578.8    6724.9433    48.731617    2.3577398    150470.89    153643.85 
   22900    1288.8304    6497433.2    6724.9433    48.731617    2.3577398    150608.86    153659.22 
   23000      1266.66    6502746.7    6724.9433    48.731617    2.3577398    150747.09    153744.98 
   23100    1272.0779    6505656.2    6724.9433    48.731617    2.3577398    150816.09     153826.8 
   23200    1324.7115    6502107.9    6724.9433    48.731617    2.3577398    150710.14    153845.41 
   23300    1295.8892    6501494.4    6724.9433    48.731617    2.3577398    150704.98    153772.05 
   23400    1313.0819    6497134.3    6724.9433    48.731617    2.3577398    150593.19    153700.95 
   23500    1279.6338    6498305.6    6724.9433    48.731617    2.3577398    150633.87    153662.46 
   23600    1287.7634    6499843.2    6724.9433    48.731617    2.3577398    150669.33    153717.16 
   23700     1295.151    6502862.8    6724.9433    48.731617    2.3577398    150738.92    153804.24 
   23800    1343.0667    6499801.4    6724.9433    48.731617    2.3577398    150646.01    153824.73 
   23900    1321.3532    6500532.6    6724.9433    48.731617    2.3577398    150671.98    153799.31 
   24000    1296.0184    6500049.4    6724.9433    48.731617    2.3577398    150670.21    153737.58 
   24100    1278.4257    6500233.4    6724.9433    48.731617    2.3577398    150680.22    153705.95 
   24200    1333.0242    6495321.1    6724.9433    48.731617    2.3577398    150540.51    153695.46 
   24300    1283.4375    6500932.3    6724.9433    48.731617    2.3577398    150696.39    153733.98 
   24400    1331.7704    6499696.4    6724.9433    48.731617    2.3577398    150646.88    153798.86 
   24500     1305.923    6501486.5    6724.9433    48.731617    2.3577398     150701.3    153792.11 
   24600    1251.3742      6505165    6724.9433    48.731617    2.3577398     150812.5     153774.2 
   24700    1287.3352    6501188.6    6724.9433    48.731617    2.3577398    150700.79    153747.61 
   24800    1333.5872    6497028.6    6724.9433    48.731617    2.3577398    150583.44    153739.72 
   24900    1327.3276    6496985.1    6724.9433    48.731617    2.3577398    150583.15    153724.62 
   25000    1334.0704    6496097.9    6724.9433    48.731617    2.3577398    150560.03    153717.45 
   25100    1299.5239    6500744.2    6724.9433    48.731617    2.3577398    150685.22    153760.89 
   25200    1304.5544    6501418.1    6724.9433    48.731617    2.3577398    150700.17    153787.74 
   25300    1338.9965    6498542.8    6724.9433    48.731617    2.3577398    150616.42    153785.51 
   25400    1316.3497      6500589    6724.9433    48.731617    2.3577398    150675.86    153791.35 
   25500    1305.4045    6500585.5    6724.9433    48.731617    2.3577398     150678.9    153768.49 
   25600    1295.0466    6498670.2    6724.9433    48.731617    2.3577398    150637.81    153702.88 
   25700    1292.9529    6497546.8    6724.9433    48.731617    2.3577398    150609.85    153669.97 
   25800    1283.3715    6500629.2    6724.9433    48.731617    2.3577398    150690.92    153728.35 
   25900    1363.0389      6497896    6724.9433    48.731617    2.3577398    150590.39    153816.38 
   26000    1283.7087    6505002.5    6724.9433    48.731617    2.3577398    150795.27    153833.51 
   26100    1337.8684    6499592.2    6724.9433    48.731617    2.3577398    150641.14    153807.55 
   26200    1305.4746    6499164.8    6724.9433    48.731617    2.3577398    150644.14    153733.89 
   26300    1276.6734      6497578    6724.9433    48.731617    2.3577398    150618.05    153639.64 
   26400    1309.0765    6495417.2    6724.9433    48.731617    2.3577398    150551.53     153649.8 
   26500    1298.5478    6500762.8    6724.9433    48.731617    2.3577398    150686.85    153760.21 
   26600    1300.1623      6506069    6724.9433    48.731617    2.3577398    150814.95    153892.13 
   26700    1322.6961    6504063.6    6724.9433    48.731617    2.3577398    150758.33    153888.84 
   26800    1281.3217    6502497.2    6724.9433    48.731617    2.3577398    150736.04    153768.62 
   26900     1278.991    6497104.3    6724.9433    48.731617    2.3577398    150605.31    153632.38 
   27000    1248.5726    6497593.5    6724.9433    48.731617    2.3577398    150629.34    153584.42 
   27100    1301.5564    6497660.5    6724.9433    48.731617    2.3577398    150610.93    153691.41 
   27200    1287.9657      6506265    6724.9433    48.731617    2.3577398    150824.44    153872.75 
   27300    1385.7016    6502689.1    6724.9433    48.731617    2.3577398    150698.28     153977.9 
   27400    1310.9768    6503477.6    6724.9433    48.731617    2.3577398     150747.2    153849.98 
   27500    1272.7783    6497159.4    6724.9433    48.731617    2.3577398    150607.19    153619.56 
   27600     1263.639      6494019    6724.9433    48.731617    2.3577398    150537.15    153527.88 
   27700     1293.195    6496087.6    6724.9433    48.731617    2.3577398    150574.95    153635.64 
   27800    1359.6305    6499289.7    6724.9433    48.731617    2.3577398    150626.36    153844.28 
   27900    1380.9852    6503145.2    6724.9433    48.731617    2.3577398    150714.97    153983.44 
   28000    1329.4836    6505566.4    6724.9433    48.731617    2.3577398    150791.08    153937.65 
   28100    1337.8665    6495518.2    6724.9433    48.731617    2.3577398    150544.67    153711.08 
   28200    1224.1077    6495832.4    6724.9433    48.731617    2.3577398    150596.89    153494.06 
   28300    1295.3135    6491310.6    6724.9433    48.731617    2.3577398    150458.61    153524.31 
   28400    1262.4253    6504586.3    6724.9433    48.731617    2.3577398    150794.36    153782.22 
   28500    1391.0722    6503764.4    6724.9433    48.731617    2.3577398    150723.47    154015.81 
   28600    1354.0045    6506182.6    6724.9433    48.731617    2.3577398    150796.59     154001.2 
   28700    1288.5882    6501695.8    6724.9433    48.731617    2.3577398    150711.99    153761.77 
   28800    1245.4343    6496314.9    6724.9433    48.731617    2.3577398    150599.82    153547.47 
   28900    1227.6207    6494846.3    6724.9433    48.731617    2.3577398    150570.68    153476.16 
   29000    1286.4398    6497154.1    6724.9433    48.731617    2.3577398    150603.98    153648.68 
   29100    1302.2246    6508395.1    6724.9433    48.731617    2.3577398    150869.41    153951.47 
   29200    1392.0156    6506476.7    6724.9433    48.731617    2.3577398    150788.79    154083.36 
   29300    1329.5453      6502218    6724.9433    48.731617    2.3577398    150709.28       153856 
   29400    1260.0118    6495741.9    6724.9433    48.731617    2.3577398    150580.46    153562.61 
   29500    1284.2931    6490619.7    6724.9433    48.731617    2.3577398    150446.08     153485.7 
   29600    1277.4784    6496808.5    6724.9433    48.731617    2.3577398     150600.5    153623.99 
   29700    1384.5606    6498343.7    6724.9433    48.731617    2.3577398    150592.92    153869.85 
   29800    1324.8978      6509748    6724.9433    48.731617    2.3577398    150894.21    154029.93 
   29900    1379.6353    6502887.8    6724.9433    48.731617    2.3577398    150705.57    153970.84 
   30000    1257.0161    6501102.3    6724.9433    48.731617    2.3577398    150711.09    153686.15 
   30100    1226.9191    6493884.8    6724.9433    48.731617    2.3577398    150546.86    153450.68 
   30200    1258.8006    6493458.8    6724.9433    48.731617    2.3577398    150524.15    153503.44 
   30300    1310.1774      6500760    6724.9433    48.731617    2.3577398    150681.58    153782.45 
   30400    1392.2953    6503867.9    6724.9433    48.731617    2.3577398    150725.39    154020.62 
   30500     1338.552    6507700.5    6724.9433    48.731617    2.3577398    150839.63    154007.67 
   30600    1289.9218    6502484.4    6724.9433    48.731617    2.3577398    150730.93    153783.87 
   30700      1274.11    6493564.7    6724.9433    48.731617    2.3577398    150523.18     153538.7 
   30800    1211.9786    6496038.5    6724.9433    48.731617    2.3577398     150605.1    153473.57 
   30900    1293.1015    6497376.9    6724.9433    48.731617    2.3577398    150606.79    153667.25 
   31000    1351.9792    6504570.8    6724.9433    48.731617    2.3577398    150759.86    153959.68 
   31100    1394.0712    6504887.1    6724.9433    48.731617    2.3577398    150751.38    154050.81 
   31200    1332.4853    6502413.8    6724.9433    48.731617    2.3577398    150712.47    153866.15 
   31300    1296.2288    6494472.2    6724.9433    48.731617    2.3577398    150534.76    153602.62 
   31400    1258.9833    6492561.4    6724.9433    48.731617    2.3577398     150502.6    153482.32 
   31500     1261.111    6496531.1    6724.9433    48.731617    2.3577398    150598.17    153582.92 
   31600    1341.4088    6500631.2    6724.9433    48.731617    2.3577398    150666.12    153840.92 
   31700    1405.8491    6503398.4    6724.9433    48.731617    2.3577398    150709.02    154036.34 
   31800    1325.7199    6506290.5    6724.9433    48.731617    2.3577398    150810.12    153947.79 
   31900    1280.2725    6499353.6    6724.9433    48.731617    2.3577398    150659.42    153689.52 
   32000    1260.6367    6494243.1    6724.9433    48.731617    2.3577398     150544.1    153527.73 
   32100    1234.5846    6497869.9    6724.9433    48.731617    2.3577398    150639.69    153561.66 
   32200    1286.9164    6501187.7    6724.9433    48.731617    2.3577398    150702.68    153748.51 
   32300    1377.4132    6501987.1    6724.9433    48.731617    2.3577398    150685.52    153945.53 
   32400    1326.7746    6507460.2    6724.9433    48.731617    2.3577398    150839.01    153979.17 
   32500    1309.4743    6501426.3    6724.9433    48.731617    2.3577398    150698.35    153797.56 
   32600    1237.0239    6498053.2    6724.9433    48.731617    2.3577398    150645.05    153572.79 
   32700    1250.1459    6495485.1    6724.9433    48.731617    2.3577398     150577.2       153536 
   32800    1323.4411    6496425.3    6724.9433    48.731617    2.3577398    150571.52    153703.79 
   32900     1347.914    6502346.1    6724.9433    48.731617    2.3577398    150706.76    153896.95 
   33000    1344.9641    6504492.3    6724.9433    48.731617    2.3577398    150757.89     153941.1 
   33100    1304.4247    6503139.5    6724.9433    48.731617    2.3577398    150742.32    153829.58 
   33200    1308.4195    6496679.7    6724.9433    48.731617    2.3577398    150583.85    153680.57 
   33300    1241.4729    6497906.7    6724.9433    48.731617    2.3577398    150641.72    153579.99 
   33400     1304.076    6495532.2    6724.9433    48.731617    2.3577398    150557.42    153643.85 
   33500    1317.7289    6501736.4    6724.9433    48.731617    2.3577398    150703.34    153822.09 
   33600    1322.0872    6505133.8    6724.9433    48.731617    2.3577398    150781.75    153910.81 
   33700    1338.5966    6500709.8    6724.9433    48.731617    2.3577398    150669.01    153837.15 
   33800    1321.6925    6496630.7    6724.9433    48.731617    2.3577398    150576.56    153704.69 
   33900     1246.808    6500634.3    6724.9433    48.731617    2.3577398       150703     153653.9 
   34000    1264.0678      6500349    6724.9433    48.731617    2.3577398    150690.46    153682.21 
   34100    1281.1392    6502194.9    6724.9433    48.731617    2.3577398    150727.21    153759.37 
   34200    1306.9154    6503250.2    6724.9433    48.731617    2.3577398    150744.17    153837.33 
   34300    1295.8542    6503441.5    6724.9433    48.731617    2.3577398     150752.5    153819.48 
   34400    1274.8868    6501605.4    6724.9433    48.731617    2.3577398    150716.52    153733.87 
   34500    1299.2697    6498065.8    6724.9433    48.731617    2.3577398    150621.14    153696.21 
   34600    1348.7706    6495689.9    6724.9433    48.731617    2.3577398    150544.22    153736.44 
   34700    1207.1695    6509323.5    6724.9433    48.731617    2.3577398    150928.61     153785.7 
   34800    1292.0808    6502942.1    6724.9433    48.731617    2.3577398    150742.46    153800.51 
   34900    1345.6348    6497622.2    6724.9433    48.731617    2.3577398    150592.38    153777.18 
   35000    1338.6237    6496969.6    6724.9433    48.731617    2.3577398    150578.23    153746.44 
   35100    1329.3714    6496601.4    6724.9433    48.731617    2.3577398    150573.36    153719.67 
   35200    1365.8738    6494357.6    6724.9433    48.731617    2.3577398    150505.57    153738.27 
   35300    1290.0707    6502644.1    6724.9433    48.731617    2.3577398    150736.18    153789.47 
   35400    1316.1029    6501468.4    6724.9433    48.731617    2.3577398    150696.56    153811.46 
   35500    1272.3927    6502823.1    6724.9433    48.731617    2.3577398    150748.03    153759.49 
   35600     1259.991    6501332.5    6724.9433    48.731617    2.3577398    150716.14    153698.24 
   35700    1301.5953    6498191.3    6724.9433    48.731617    2.3577398    150623.16    153703.72 
   35800    1305.7377    6500083.5    6724.9433    48.731617    2.3577398    150666.83     153757.2 
   35900      1305.05    6502589.2    6724.9433    48.731617    2.3577398     150728.2    153816.94 
   36000    1317.6555    6501972.2    6724.9433    48.731617    2.3577398    150708.37    153826.95 
   36100    1328.5029      6498987    6724.9433    48.731617    2.3577398    150631.29    153775.54 
   36200    1256.6059    6500715.3    6724.9433    48.731617    2.3577398    150701.92    153676.01 
   36300    1255.3349    6499263.5    6724.9433    48.731617    2.3577398    150667.13    153638.21 
   36400    1312.9775    6497950.2    6724.9433    48.731617    2.3577398    150612.25    153719.75 
   36500     1299.411    6504314.4    6724.9433    48.731617    2.3577398     150771.8     153847.2 
   36600     1337.319    6502723.8    6724.9433    48.731617    2.3577398    150719.87    153884.99 
   36700    1291.1874      6502883    6724.9433    48.731617    2.3577398    150740.72    153796.65 
   36800    1327.0581    6495236.4    6724.9433    48.731617    2.3577398    150541.27     153682.1 
   36900     1218.771    6500893.8    6724.9433    48.731617    2.3577398    150721.47    153606.02 
   37000    1277.8678    6498269.7    6724.9433    48.731617    2.3577398    150634.81    153659.22 
   37100    1338.0782    6499693.5    6724.9433    48.731617    2.3577398    150645.65    153812.56 
   37200    1359.9781    6503536.3    6724.9433    48.731617    2.3577398    150729.72    153948.47 
   37300    1320.4628    6504402.3    6724.9433    48.731617    2.3577398    150766.77    153891.99 
   37400    1283.3222    6499372.4    6724.9433    48.731617    2.3577398    150659.51    153696.83 
   37500    1260.3362    6495742.6    6724.9433    48.731617    2.3577398    150580.96    153563.88 
   37600    1225.8965    6499867.6    6724.9433    48.731617    2.3577398    150692.38    153593.78 
   37700    1277.3513      6502270    6724.9433    48.731617    2.3577398    150730.93    153754.12 
   37800    1382.2206    6500930.9    6724.9433    48.731617    2.3577398    150658.06    153929.45 
   37900    1317.4326    6507763.7    6724.9433    48.731617    2.3577398     150848.1    153966.15 
   38000    1252.7325    6505967.2    6724.9433    48.731617    2.3577398    150831.45    153796.37 
   38100    1293.3666    6493626.8    6724.9433    48.731617    2.3577398    150515.01    153576.11 
   38200    1277.2047    6492512.5    6724.9433    48.731617    2.3577398    150495.53    153518.37 
   38300    1255.4881    6500565.5    6724.9433    48.731617    2.3577398    150698.36    153669.81 
   38400    1361.6826    6501707.7    6724.9433    48.731617    2.3577398    150683.89    153906.67 
   38500     1359.663    6505359.9    6724.9433    48.731617    2.3577398    150774.78    153992.78 
   38600    1332.2512    6502678.7    6724.9433    48.731617    2.3577398     150719.7    153872.82 
   38700      1266.49    6498967.6    6724.9433    48.731617    2.3577398    150654.85    153652.33 
   38800    1296.1637    6490816.5    6724.9433    48.731617    2.3577398    150446.92    153514.63 
   38900    1234.0919    6498153.1    6724.9433    48.731617    2.3577398    150648.97    153569.77 
   39000    1328.0691      6500122    6724.9433    48.731617    2.3577398    150658.12    153801.34 
   39100    1272.2872    6512428.6    6724.9433    48.731617    2.3577398    150979.11    153990.31 
   39200    1353.6651    6504978.1    6724.9433    48.731617    2.3577398    150766.85    153970.66 
   39300    1290.8714    6500701.4    6724.9433    48.731617    2.3577398    150688.83    153744.02 
   39400    1237.9652    6497399.4    6724.9433    48.731617    2.3577398    150627.92    153557.89 
   39500    1268.7859    6493599.3    6724.9433    48.731617    2.3577398    150524.97    153527.89 
   39600    1272.3526    6499964.8    6724.9433    48.731617    2.3577398    150677.88    153689.24 
   39700    1352.1305    6503007.4    6724.9433    48.731617    2.3577398    150720.87    153921.04 
   39800    1358.7324    6506128.7    6724.9433    48.731617    2.3577398    150793.27    154009.06 
   39900    1364.8442    6499262.4    6724.9433    48.731617    2.3577398    150624.38    153854.65 
   40000    1224.7212    6500767.9    6724.9433    48.731617    2.3577398    150716.24    153614.86 
   40100    1195.2328    6499070.1    6724.9433    48.731617    2.3577398     150686.6    153515.43 
   40200    1292.6438    6495647.5    6724.9433    48.731617    2.3577398    150565.43    153624.81 
   40300    1318.5494    6501938.5    6724.9433    48.731617    2.3577398    150706.32    153827.01 
   40400    1357.8551    6504576.5    6724.9433    48.731617    2.3577398    150756.77     153970.5 
   40500    1340.7171    6503991.7    6724.9433    48.731617    2.3577398    150746.65    153919.81 
   40600    1256.6832    6502260.6    6724.9433    48.731617    2.3577398    150738.89    153713.16 
   40700    1266.2197    6494564.3    6724.9433    48.731617    2.3577398    150548.22    153545.06 
   40800     1290.141      6494049    6724.9433    48.731617    2.3577398    150527.15     153580.6 
   40900    1338.3113    6497500.8    6724.9433    48.731617    2.3577398    150592.48    153759.94 
   41000    1292.0403    6507974.7    6724.9433    48.731617    2.3577398    150863.96    153921.91 
   41100    1361.2319    6502532.1    6724.9433    48.731617    2.3577398    150705.93    153927.65 
   41200    1318.6049    6500237.2    6724.9433    48.731617    2.3577398    150666.05    153786.87 
   41300    1266.2414    6497565.4    6724.9433    48.731617    2.3577398    150622.58    153619.48 
   41400    1243.8144    6497539.7    6724.9433    48.731617    2.3577398    150628.99     153572.8 
   41500     1273.312    6499577.7    6724.9433    48.731617    2.3577398    150668.04    153681.67 
   41600    1406.6763    6496226.7    6724.9433    48.731617    2.3577398    150534.76    153864.03 
   41700    1366.2252    6502242.8    6724.9433    48.731617    2.3577398    150697.26    153930.79 
   41800    1331.3776    6501648.1    6724.9433    48.731617    2.3577398    150694.43    153845.49 
   41900     1286.615    6498843.2    6724.9433    48.731617    2.3577398     150644.2    153689.31 
   42000    1258.3649    6497331.2    6724.9433    48.731617    2.3577398    150619.88    153598.13 
   42100     1266.901      6497958    6724.9433    48.731617    2.3577398    150630.55       153629 
   42200    1360.5828    6496708.2    6724.9433    48.731617    2.3577398    150563.93    153784.11 
   42300    1316.9549    6505612.8    6724.9433    48.731617    2.3577398    150796.99    153913.91 
   42400    1338.5701    6503084.8    6724.9433    48.731617    2.3577398    150727.89    153895.97 
   42500    1277.5445    6501755.8    6724.9433    48.731617    2.3577398     150719.7    153743.34 
   42600    1275.6389    6496728.6    6724.9433    48.731617    2.3577398    150597.29    153616.42 
   42700    1294.0516    6494826.1    6724.9433    48.731617    2.3577398    150544.44    153607.16 
   42800    1311.0228    6498404.5    6724.9433    48.731617    2.3577398    150624.26    153727.14 
   42900    1317.5109    6502988.5    6724.9433    48.731617    2.3577398    150731.46     153849.7 
   43000     1341.217      6503329    6724.9433    48.731617    2.3577398    150732.06     153906.4 
   43100    1306.0564    6502411.3    6724.9433    48.731617    2.3577398    150724.69    153815.82 
   43200      1324.17      6495384    6724.9433    48.731617    2.3577398    150545.92    153679.92 
   43300    1282.1114    6496122.3    6724.9433    48.731617    2.3577398    150580.19    153614.64 
   43400    1289.1581    6498300.9    6724.9433    48.731617    2.3577398    150630.52    153681.65 
   43500    1337.3877    6499545.8    6724.9433    48.731617    2.3577398    150642.44    153807.72 
   43600    1293.5432    6505994.6    6724.9433    48.731617    2.3577398    150815.05    153876.56 
   43700    1337.5857    6500546.8    6724.9433    48.731617    2.3577398    150667.16    153832.91 
   43800     1266.182      6501896    6724.9433    48.731617    2.3577398     150727.5    153724.25 
   43900    1292.0143      6496494    6724.9433    48.731617    2.3577398    150585.71     153643.6 
   44000    1286.9946    6498074.6    6724.9433    48.731617    2.3577398     150625.7    153671.71 
   44100    1303.6166    6500385.5    6724.9433    48.731617    2.3577398    150675.03    153760.38 
   44200    1364.9557    6498499.8    6724.9433    48.731617    2.3577398    150606.43    153836.96 
   44300    1304.9168    6502996.8    6724.9433    48.731617    2.3577398     150737.9    153826.33 
   44400      1330.24    6498826.6    6724.9433    48.731617    2.3577398    150627.51    153775.88 
   44500    1339.1003    6495356.5    6724.9433    48.731617    2.3577398    150538.69    153708.02 
   44600    1300.8909    6497342.9    6724.9433    48.731617    2.3577398    150603.24    153682.14 
   44700    1309.7738    6498158.7    6724.9433    48.731617    2.3577398    150618.94    153718.87 
   44800    1286.1473      6503190    6724.9433    48.731617    2.3577398    150750.08    153794.09 
   44900    1284.5669    6504890.9    6724.9433    48.731617    2.3577398    150791.67    153831.93 
   45000    1312.1808    6501078.6    6724.9433    48.731617    2.3577398    150689.22    153794.84 
   45100    1330.1821    6496671.6    6724.9433    48.731617    2.3577398     150574.8    153723.02 
   45200    1274.8449    6499712.4    6724.9433    48.731617    2.3577398    150670.47    153687.73 
   45300    1337.0408    6495675.5    6724.9433    48.731617    2.3577398    150546.97    153711.43 
   45400    1350.2785    6496723.2    6724.9433    48.731617    2.3577398     150568.2    153763.99 
   45500    1308.2086    6501873.7    6724.9433    48.731617    2.3577398    150709.87    153806.09 
   45600    1334.7258    6499721.7    6724.9433    48.731617    2.3577398    150648.58    153807.56 
   45700    1304.4658    6500259.1    6724.9433    48.731617    2.3577398    150671.46    153758.83 
   45800    1284.5817    6500190.7    6724.9433    48.731617    2.3577398    150678.21    153718.51 
   45900    1289.8495    6499641.2    6724.9433    48.731617    2.3577398    150662.65    153715.42 
   46000    1297.5346    6500419.7    6724.9433    48.731617    2.3577398    150677.59    153748.55 
   46100    1271.2284    6503187.3    6724.9433    48.731617    2.3577398    150755.31    153764.01 
   46200    1284.3958    6502121.3    6724.9433    48.731617    2.3577398    150724.96    153764.82 
   46300     1288.654    6501755.7    6724.9433    48.731617    2.3577398    150715.05    153764.99 
   46400    1282.6844    6501977.6    6724.9433    48.731617    2.3577398    150722.34    153758.15 
   46500    1271.6523    6502437.8    6724.9433    48.731617    2.3577398    150737.66    153747.36 
   46600    1289.6751    6500586.5    6724.9433    48.731617    2.3577398    150686.14    153738.49 
   46700    1267.0678    6502804.9    6724.9433    48.731617    2.3577398    150749.56    153748.41 
   46800    1278.6355    6502628.3    6724.9433    48.731617    2.3577398    150739.14    153765.37 
   46900    1267.7759    6502846.6    6724.9433    48.731617    2.3577398    150748.96    153749.49 
   47000    1284.5285    6501700.4    6724.9433    48.731617    2.3577398     150712.8    153752.98 
   47100    1305.6947    6500214.5    6724.9433    48.731617    2.3577398    150671.42    153761.69 
   47200    1301.9939    6500464.9    6724.9433    48.731617    2.3577398    150677.92    153759.43 
   47300    1283.7004    6501796.7    6724.9433    48.731617    2.3577398    150716.89     153755.1 
   47400    1293.2399      6500282    6724.9433    48.731617    2.3577398    150676.82    153737.62 
   47500    1311.7236      6498832    6724.9433    48.731617    2.3577398     150635.6    153740.14 
   47600    1279.8969    6501064.6    6724.9433    48.731617    2.3577398    150699.99     153729.2 
   47700    1267.0019    6503426.4    6724.9433    48.731617    2.3577398    150763.86    153762.55 
   47800     1312.922    6501012.2    6724.9433    48.731617    2.3577398    150687.35    153794.73 
   47900    1355.4627      6497614    6724.9433    48.731617    2.3577398    150588.41    153796.47 
   48000     1308.484    6499408.8    6724.9433    48.731617    2.3577398    150649.42    153746.29 
   48100    1253.0249    6502414.4    6724.9433    48.731617    2.3577398    150745.39    153711.01 
   48200    1275.9821    6500956.7    6724.9433    48.731617    2.3577398    150699.38    153719.32 
   48300    1248.0137    6504157.4    6724.9433    48.731617    2.3577398    150788.15     153741.9 
   48400    1320.5299    6500150.2    6724.9433    48.731617    2.3577398    150663.54    153788.92 
   48500    1340.5566    6499225.1    6724.9433    48.731617    2.3577398    150632.24    153805.02 
   48600    1283.7577    6502439.5    6724.9433    48.731617    2.3577398    150732.16    153770.51 
   48700    1308.6523    6497836.2    6724.9433    48.731617    2.3577398    150612.78    153710.05 
   48800    1285.2985    6498917.6    6724.9433    48.731617    2.3577398     150648.1     153690.1 
   48900    1320.1039    6497930.1    6724.9433    48.731617    2.3577398    150610.02    153734.39 
   49000    1348.6756    6497906.6    6724.9433    48.731617    2.3577398    150597.58    153789.58 
   49100    1304.3875    6502868.4    6724.9433    48.731617    2.3577398    150735.26    153822.43 
   49200     1304.988    6501595.8    6724.9433    48.731617    2.3577398    150704.74    153793.34 
   49300    1244.6792    6503995.5    6724.9433    48.731617    2.3577398    150786.01    153731.87 
   49400    1277.4614    6498842.1    6724.9433    48.731617    2.3577398    150649.58    153673.03 
   49500    1284.1687    6498995.8    6724.9433    48.731617    2.3577398     150649.4    153688.72 
   49600    1292.4141    6501403.7    6724.9433    48.731617    2.3577398     150703.9    153762.74 
   49700    1297.4936      6504199    6724.9433    48.731617    2.3577398    150770.14       153841 
   49800    1298.8636    6503078.9    6724.9433    48.731617    2.3577398    150742.23    153816.33 
   49900    1298.1748    6500839.9    6724.9433    48.731617    2.3577398    150687.47    153759.94 
   50000    1291.2635    6498679.8    6724.9433    48.731617    2.3577398    150638.76    153694.87 
   50100     1255.442    6500332.5    6724.9433    48.731617    2.3577398    150691.66       153663 
   50200    1274.2621    6501269.9    6724.9433    48.731617    2.3577398    150708.44    153724.32 
   50300    1299.6701    6502717.7    6724.9433    48.731617    2.3577398    150733.55    153809.56 
   50400     1313.896      6503723    6724.9433    48.731617    2.3577398    150752.76    153862.44 
   50500    1274.5688    6504247.8    6724.9433    48.731617    2.3577398    150779.87    153796.48 
   50600    1318.4778    6497284.1    6724.9433    48.731617    2.3577398    150594.66    153715.18 
   50700    1319.0433    6495203.9    6724.9433    48.731617    2.3577398    150543.59    153665.46 
   50800    1307.0173    6497295.2    6724.9433    48.731617    2.3577398    150598.78    153692.18 
   50900    1276.2462      6502924    6724.9433    48.731617    2.3577398    150748.73     153769.3 
   51000    1315.5992    6502400.5    6724.9433    48.731617    2.3577398    150719.14    153832.85 
   51100    1332.9634      6500273    6724.9433    48.731617    2.3577398    150662.03    153816.84 
   51200    1245.1913    6504546.9    6724.9433    48.731617    2.3577398    150799.83     153746.9 
   51300    1282.5009    6498883.2    6724.9433    48.731617    2.3577398    150646.46    153681.84 
   51400     1304.061    6496766.9    6724.9433    48.731617    2.3577398    150586.44    153672.84 
   51500     1317.243    6498512.1    6724.9433    48.731617    2.3577398    150625.59    153743.19 
   51600    1272.6941    6504998.5    6724.9433    48.731617    2.3577398    150799.92    153812.08 
   51700    1323.7158    6501636.2    6724.9433    48.731617    2.3577398    150699.14    153832.06 
   51800      1299.87    6501505.7    6724.9433    48.731617    2.3577398    150702.69    153779.18 
   51900    1313.4529    6497242.8    6724.9433    48.731617    2.3577398    150595.69    153704.33 
   52000    1273.4327    6498906.6    6724.9433    48.731617    2.3577398    150650.79     153664.7 
   52100    1306.0059    6498012.4    6724.9433    48.731617    2.3577398    150617.37    153708.38 
   52200    1312.1949    6501108.9    6724.9433    48.731617    2.3577398    150689.05    153794.71 
   52300    1271.3531    6505733.2    6724.9433    48.731617    2.3577398    150817.89    153826.88 
   52400    1274.0113    6504667.4    6724.9433    48.731617    2.3577398    150789.35    153804.63 
   52500    1341.4617    6495963.2    6724.9433    48.731617    2.3577398    150553.47    153728.39 
   52600    1331.2164    6494455.1    6724.9433    48.731617    2.3577398    150520.62     153671.3 
   52700    1265.0052    6500546.7    6724.9433    48.731617    2.3577398    150694.52    153688.49 
   52800     1286.056    6502328.5    6724.9433    48.731617    2.3577398    150729.39    153773.18 
   52900    1330.0804    6501792.6    6724.9433    48.731617    2.3577398    150698.94    153846.93 
   53000    1308.3123    6502630.8    6724.9433    48.731617    2.3577398    150729.37    153825.84 
   53100    1316.2708    6498691.5    6724.9433    48.731617    2.3577398    150630.33    153745.64 
   53200    1294.7714    6497071.2    6724.9433    48.731617    2.3577398    150598.73    153663.15 
   53300    1321.5716    6495362.2    6724.9433    48.731617    2.3577398    150546.28    153674.13 
   53400    1284.3254    6501372.8    6724.9433    48.731617    2.3577398     150707.1    153746.79 
   53500    1376.2152    6497405.6    6724.9433    48.731617    2.3577398    150574.58    153831.75 
   53600    1273.6745    6505942.3    6724.9433    48.731617    2.3577398     150822.3    153836.79 
   53700    1346.6172    6497679.8    6724.9433    48.731617    2.3577398    150592.84    153779.97 
   53800    1313.4146    6496508.3    6724.9433    48.731617    2.3577398    150578.83    153687.37 
   53900    1276.6963    6497795.7    6724.9433    48.731617    2.3577398    150622.48    153644.12 
   54000    1322.8333    6497120.2    6724.9433    48.731617    2.3577398    150587.96    153718.79 
   54100    1289.9638    6503975.8    6724.9433    48.731617    2.3577398    150767.89    153820.93 
   54200     1311.271      6504713    6724.9433    48.731617    2.3577398    150777.52    153880.99 
   54300    1307.0166    6501655.5    6724.9433    48.731617    2.3577398    150706.39    153799.79 
   54400    1284.9006    6499318.9    6724.9433    48.731617    2.3577398    150656.49    153697.55 
   54500     1244.239    6500179.8    6724.9433    48.731617    2.3577398    150694.08     153638.9 
   54600    1276.8489    6499790.9    6724.9433    48.731617    2.3577398    150669.88    153691.88 
   54700    1298.9034    6501937.4    6724.9433    48.731617    2.3577398    150715.82    153790.02 
   54800    1296.4396    6504900.1    6724.9433    48.731617    2.3577398    150787.45    153855.82 
   54900    1332.7349    6500946.1    6724.9433    48.731617    2.3577398    150677.92    153832.19 
   55000    1295.7402    6499575.8    6724.9433    48.731617    2.3577398    150658.06    153724.77 
   55100    1323.2135    6494409.2    6724.9433    48.731617    2.3577398    150522.75    153654.49 
   55200    1320.0692    6495438.9    6724.9433    48.731617    2.3577398    150549.48    153673.77 
   55300     1342.691    6497849.6    6724.9433    48.731617    2.3577398    150600.12    153777.95 
   55400    1347.1384    6500422.6    6724.9433    48.731617    2.3577398    150659.92    153848.27 
   55500    1301.6508    6503625.9    6724.9433    48.731617    2.3577398    150754.81    153835.51 
   55600    1288.3865    6501436.3    6724.9433    48.731617    2.3577398    150706.56    153755.87 
   55700    1287.5545    6498281.4    6724.9433    48.731617    2.3577398    150631.47     153678.8 
   55800    1284.8089    6497704.3    6724.9433    48.731617    2.3577398    150617.81    153658.65 
   55900    1307.0685    6498168.2    6724.9433    48.731617    2.3577398    150620.05    153713.58 
   56000    1350.0665    6498863.3    6724.9433    48.731617    2.3577398    150620.54    153815.83 
   56100    1317.7717    6503380.8    6724.9433    48.731617    2.3577398    150742.63    153861.48 
   56200    1282.8138    6503775.7    6724.9433    48.731617    2.3577398    150764.62    153800.73 
   56300     1258.548    6500776.9    6724.9433    48.731617    2.3577398    150702.53    153681.22 
   56400    1276.0412    6497810.1    6724.9433    48.731617    2.3577398    150623.38    153643.47 
   56500    1338.3661    6495370.4    6724.9433    48.731617    2.3577398    150540.28    153707.88 
   56600    1314.5047    6501573.9    6724.9433    48.731617    2.3577398    150700.68     153811.8 
   56700    1308.7887    6504405.2    6724.9433    48.731617    2.3577398    150770.61     153868.2 
   56800    1283.2043    6504438.1    6724.9433    48.731617    2.3577398    150782.06     153819.1 
   56900    1342.2135    6495210.2    6724.9433    48.731617    2.3577398    150535.55    153712.26 
   57000    1269.3895    6497936.6    6724.9433    48.731617    2.3577398     150629.1    153633.45 
   57100    1336.0356    6494277.9    6724.9433    48.731617    2.3577398    150513.91    153675.99 
   57200    1332.0328    6499131.6    6724.9433    48.731617    2.3577398    150633.41    153786.02 
   57300    1339.3738    6502101.7    6724.9433    48.731617    2.3577398    150703.05    153873.03 
   57400    1347.1887    6500243.3    6724.9433    48.731617    2.3577398    150655.49    153843.97 
   57500    1273.7345    6501732.5    6724.9433    48.731617    2.3577398    150719.99    153734.62 
   57600    1311.0893    6495108.1    6724.9433    48.731617    2.3577398    150544.99    153648.03 
   57700    1277.4291    6498251.1    6724.9433    48.731617    2.3577398    150633.83     153657.2 
   57800    1324.1359    6498537.8    6724.9433    48.731617    2.3577398     150623.2    153757.12 
   57900    1337.0926    6501181.1    6724.9433    48.731617    2.3577398    150681.04    153845.62 
   58000    1312.2918    6503716.6    6724.9433    48.731617    2.3577398    150751.78    153857.67 
   58100    1323.5394    6499554.6    6724.9433    48.731617    2.3577398    150648.03    153780.54 
   58200    1339.9754      6494271    6724.9433    48.731617    2.3577398    150513.48    153684.89 
   58300    1278.5416    6497318.3    6724.9433    48.731617    2.3577398    150609.82    153635.83 
   58400    1299.8726    6498093.8    6724.9433    48.731617    2.3577398    150621.28    153697.77 
   58500    1310.2409      6502169    6724.9433    48.731617    2.3577398    150715.93    153816.96 
   58600    1313.1102    6504478.5    6724.9433    48.731617    2.3577398    150770.97    153878.79 
   58700    1332.7767    6500246.6    6724.9433    48.731617    2.3577398    150660.21    153814.57 
   58800    1266.6419    6500814.1    6724.9433    48.731617    2.3577398    150699.88    153697.72 
   58900    1305.7688    6495195.4    6724.9433    48.731617    2.3577398     150548.2    153638.64 
   59000    1319.7815    6495428.3    6724.9433    48.731617    2.3577398    150549.03    153672.64 
   59100    1311.7456    6500610.7    6724.9433    48.731617    2.3577398    150678.19    153782.78 
   59200    1321.7351    6503911.4    6724.9433    48.731617    2.3577398    150753.81    153882.04 
   59300    1339.8486    6501685.6    6724.9433    48.731617    2.3577398    150692.66    153863.77 
   59400    1308.3836      6499043    6724.9433    48.731617    2.3577398    150642.21    153738.84 
   59500    1250.3251    6499400.6    6724.9433    48.731617    2.3577398     150671.8    153631.03 
   59600    1322.4264      6493853    6724.9433    48.731617    2.3577398    150509.81    153639.68 
   59700    1299.2869    6499717.4    6724.9433    48.731617    2.3577398    150660.68    153735.79 
   59800    1341.0904    6500890.9    6724.9433    48.731617    2.3577398    150672.94    153846.98 
   59900    1299.9861      6505297    6724.9433    48.731617    2.3577398    150795.32    153872.08 
   60000    1292.7806    6502408.1    6724.9433    48.731617    2.3577398    150728.85    153788.56 
   60100    1326.1254    6495287.7    6724.9433    48.731617    2.3577398    150543.31    153681.93 
   60200    1262.5726    6498689.6    6724.9433    48.731617    2.3577398     150648.9    153637.11 
   60300    1287.8878      6499212    6724.9433    48.731617    2.3577398    150651.92    153700.04 
   60400    1304.2836    6502455.9    6724.9433    48.731617    2.3577398    150726.44    153813.37 
   60500    1346.8331      6501766    6724.9433    48.731617    2.3577398    150692.49    153880.12 
   60600    1316.1868    6501972.2    6724.9433    48.731617    2.3577398    150708.44    153823.55 
   60700    1314.2393    6496813.4    6724.9433    48.731617    2.3577398     150584.7    153695.19 
   60800    1288.5784    6495971.2    6724.9433    48.731617    2.3577398    150573.95    153623.71 
   60900    1307.2064    6496481.4    6724.9433    48.731617    2.3577398    150577.85     153671.7 
   61000    1282.4109    6503286.7    6724.9433    48.731617    2.3577398    150754.02    153789.18 
   61100    1358.2828    6500861.7    6724.9433    48.731617    2.3577398    150665.24    153879.97 
   61200      1304.29    6503782.1    6724.9433    48.731617    2.3577398    150757.87    153844.81 
   61300    1341.9326    6495869.4    6724.9433    48.731617    2.3577398    150551.43    153727.46 
   61400    1332.8769    6492968.1    6724.9433    48.731617    2.3577398    150483.31    153637.91 
   61500    1329.4628    6493932.8    6724.9433    48.731617    2.3577398    150509.22    153655.75 
   61600    1317.3951    6499636.2    6724.9433    48.731617    2.3577398    150650.72    153768.69 
   61700    1317.9297    6504211.7    6724.9433    48.731617    2.3577398    150762.86    153882.09 
   61800    1338.4959    6503155.5    6724.9433    48.731617    2.3577398    150729.86    153897.77 
   61900    1294.9179      6501413    6724.9433    48.731617    2.3577398    150705.47    153770.23 
   62000    1228.7445    6500971.6    6724.9433    48.731617    2.3577398    150718.73    153626.88 
   62100    1272.4632    6496609.3    6724.9433    48.731617    2.3577398    150596.69    153608.31 
   62200    1276.3178    6500391.7    6724.9433    48.731617    2.3577398    150686.87    153707.61 
   62300    1365.0657    6498927.1    6724.9433    48.731617    2.3577398    150616.97    153847.76 
   62400    1309.0348      6505787    6724.9433    48.731617    2.3577398    150803.92     153902.1 
   62500    1291.0178    6504462.1    6724.9433    48.731617    2.3577398    150779.81    153835.34 
   62600    1297.2884    6497864.6    6724.9433    48.731617    2.3577398     150615.2    153685.57 
   62700    1250.7984    6497764.6    6724.9433    48.731617    2.3577398     150633.8    153594.14 
   62800    1271.1906    6498685.6    6724.9433    48.731617    2.3577398    150647.34    153655.95 
   62900    1314.6266    6501918.8    6724.9433    48.731617    2.3577398    150706.98    153818.39 
   63000    1301.5177    6506691.5    6724.9433    48.731617    2.3577398    150828.02     153908.4 
   63100    1327.0523    6502226.2    6724.9433    48.731617    2.3577398    150711.49    153852.31 
   63200    1258.6783    6501962.8    6724.9433    48.731617    2.3577398    150731.64    153710.63 
   63300     1251.756    6498762.7    6724.9433    48.731617    2.3577398    150656.59     153619.2 
   63400    1309.0168      6494317    6724.9433    48.731617    2.3577398     150526.1    153624.24 
   63500    1326.5122    6498217.2    6724.9433    48.731617    2.3577398     150611.9    153751.44 
   63600    1363.6053    6500842.4    6724.9433    48.731617    2.3577398    150663.39    153890.72 
   63700    1283.1524    6507357.8    6724.9433    48.731617    2.3577398    150853.17    153890.09 
   63800    1281.4124      6503371    6724.9433    48.731617    2.3577398    150756.59    153789.38 
   63900    1274.8578    6498638.5    6724.9433    48.731617    2.3577398    150644.97    153662.25 
   64000    1290.0218    6496125.3    6724.9433    48.731617    2.3577398    150578.09    153631.27 
   64100    1267.6527    6501547.8    6724.9433    48.731617    2.3577398    150717.25    153717.49 
   64200    1317.2884    6502009.6    6724.9433    48.731617    2.3577398    150710.28    153827.99 
   64300    1369.1401    6500043.5    6724.9433    48.731617    2.3577398     150640.3    153880.73 
   64400    1322.6184    6501292.2    6724.9433    48.731617    2.3577398    150689.23    153819.55 
   64500    1287.3238    6498956.2    6724.9433    48.731617    2.3577398    150647.24    153694.04 
   64600    1240.1843    6500052.4    6724.9433    48.731617    2.3577398    150692.66    153627.88 
   64700    1293.7716    6497656.3    6724.9433    48.731617    2.3577398    150613.52    153675.57 
   64800    1280.0029    6503793.8    6724.9433    48.731617    2.3577398    150767.38    153796.85 
   64900    1307.8633    6504597.6    6724.9433    48.731617    2.3577398    150775.86    153871.26 
   65000    1328.4293    6501868.8    6724.9433    48.731617    2.3577398    150700.99    153845.07 
   65100    1305.9531    6499245.4    6724.9433    48.731617    2.3577398    150647.04    153737.93 
   65200    1248.1971    6499799.7    6724.9433    48.731617    2.3577398    150682.63    153636.81 
   65300    1284.7266    6497851.6    6724.9433    48.731617    2.3577398    150620.73    153661.37 
   65400    1366.5039      6496006    6724.9433    48.731617    2.3577398    150544.18    153778.37 
   65500    1332.6847    6501670.7    6724.9433    48.731617    2.3577398    150694.76    153848.91 
   65600    1320.0946    6502913.3    6724.9433    48.731617    2.3577398     150730.7    153855.05 
   65700    1315.9937    6499412.6    6724.9433    48.731617    2.3577398    150647.84    153762.48 
   65800    1253.1147    6500899.7    6724.9433    48.731617    2.3577398    150707.84    153673.66 
   65900    1242.7032    6501355.3    6724.9433    48.731617    2.3577398    150722.38    153663.57 
   66000    1254.2584    6502667.9    6724.9433    48.731617    2.3577398    150750.34    153718.87 
   66100    1311.5892    6501712.4    6724.9433    48.731617    2.3577398    150704.23    153808.45 
   66200    1306.4154    6503430.5    6724.9433    48.731617    2.3577398    150748.65    153840.63 
   66300    1368.8209      6497017    6724.9433    48.731617    2.3577398    150567.52     153807.2 
   66400    1272.7643    6501208.2    6724.9433    48.731617    2.3577398    150707.54    153719.87 
   66500    1299.4045    6496712.2    6724.9433    48.731617    2.3577398    150588.37    153663.75 
   66600    1305.7306    6497169.8    6724.9433    48.731617    2.3577398    150595.82    153686.18 
   66700    1269.2135    6503427.9    6724.9433    48.731617    2.3577398    150762.54    153766.46 
   66800    1334.2964    6501170.5    6724.9433    48.731617    2.3577398    150682.12    153840.08 
   66900    1350.2653    6499939.6    6724.9433    48.731617    2.3577398     150646.2    153841.96 
   67000    1288.5677    6501624.2    6724.9433    48.731617    2.3577398    150710.76    153760.49 
   67100     1303.517    6497412.2    6724.9433    48.731617    2.3577398     150604.1    153689.22 
   67200    1296.8369    6497285.8    6724.9433    48.731617    2.3577398    150602.56    153671.87 
   67300     1304.261    6498565.6    6724.9433    48.731617    2.3577398    150629.93     153716.8 
   67400    1335.4749    6499317.8    6724.9433    48.731617    2.3577398    150637.99    153798.74 
   67500    1355.2363    6499199.4    6724.9433    48.731617    2.3577398    150626.16    153833.68 
   67600    1296.6426    6502475.3    6724.9433    48.731617    2.3577398    150729.52    153798.36 
   67700    1337.1651    6496724.3    6724.9433    48.731617    2.3577398    150573.35     153738.1 
   67800     1309.789    6496763.8    6724.9433    48.731617    2.3577398    150584.99    153684.95 
   67900    1265.0342    6500394.1    6724.9433    48.731617    2.3577398    150689.94    153683.97 
   68000    1301.6018    6500487.2    6724.9433    48.731617    2.3577398    150678.53    153759.11 
   68100     1328.553    6500591.1    6724.9433    48.731617    2.3577398    150670.94    153815.31 
   68200     1305.548    6502755.1    6724.9433    48.731617    2.3577398    150732.48     153822.4 
   68300    1304.5534    6500731.5    6724.9433    48.731617    2.3577398    150683.27    153770.84 
   68400    1256.9089    6502007.1    6724.9433    48.731617    2.3577398    150732.86    153707.66 
   68500    1328.9016      6495780    6724.9433    48.731617    2.3577398    150552.66    153697.86 
   68600    1323.9095    6497195.9    6724.9433    48.731617    2.3577398    150589.06    153722.44 
   68700    1308.3434    6500213.2    6724.9433    48.731617    2.3577398    150668.85    153765.39 
   68800    1339.3701      6499376    6724.9433    48.731617    2.3577398    150637.56    153807.54 
   68900    1325.7389    6499670.4    6724.9433    48.731617    2.3577398    150650.51    153788.22 
   69000    1349.9361    6496011.6    6724.9433    48.731617    2.3577398    150550.42    153745.39 
   69100    1280.2349    6500056.8    6724.9433    48.731617    2.3577398    150676.35    153706.36 
   69200    1308.9999    6497812.4    6724.9433    48.731617    2.3577398    150610.39    153708.48 
   69300    1321.8631    6498561.7    6724.9433    48.731617    2.3577398    150625.28    153753.81 
   69400    1322.2117    6500487.3    6724.9433    48.731617    2.3577398    150670.52    153799.88 
   69500    1322.1104    6500516.6    6724.9433    48.731617    2.3577398    150672.09    153801.21 
   69600    1318.3854    6499108.7    6724.9433    48.731617    2.3577398    150639.66    153759.97 
   69700    1284.5356    6500584.2    6724.9433    48.731617    2.3577398    150685.77    153725.96 
   69800    1297.1756    6498942.8    6724.9433    48.731617    2.3577398    150644.22    153714.33 
   69900    1262.8817    6501985.5    6724.9433    48.731617    2.3577398    150729.21    153718.15 
   70000    1317.7075    6499193.4    6724.9433    48.731617    2.3577398     150640.7     153759.4 
   70100    1300.3148    6501914.3    6724.9433    48.731617    2.3577398    150713.47    153791.01 
   70200    1302.7679    6501091.2    6724.9433    48.731617    2.3577398    150692.45    153775.79 
   70300    1302.2507    6500879.3    6724.9433    48.731617    2.3577398    150688.32    153770.44 
   70400    1310.2786      6498900    6724.9433    48.731617    2.3577398    150637.87    153738.99 
   70500    1290.7304      6499290    6724.9433    48.731617    2.3577398    150653.86    153708.71 
   70600     1275.766    6500892.3    6724.9433    48.731617    2.3577398    150696.97     153716.4 
   70700    1259.0974    6504184.7    6724.9433    48.731617    2.3577398    150786.44    153766.42 
   70800    1286.0077    6504106.1    6724.9433    48.731617    2.3577398    150772.31    153815.99 
   70900    1361.5936    6497841.2    6724.9433    48.731617    2.3577398     150591.5    153814.07 
   71000    1334.0784    6498903.4    6724.9433    48.731617    2.3577398    150627.55       153785 
   71100    1318.2357    6497356.8    6724.9433    48.731617    2.3577398    150597.53    153717.48 
   71200     1262.899    6500605.7    6724.9433    48.731617    2.3577398    150697.24    153686.23 
   71300    1311.8857    6498370.8    6724.9433    48.731617    2.3577398    150622.02    153726.94 
   71400     1292.195    6503110.1    6724.9433    48.731617    2.3577398    150744.79    153803.11 
   71500    1346.2544    6500356.9    6724.9433    48.731617    2.3577398    150658.61    153844.88 
   71600     1305.755    6502348.6    6724.9433    48.731617    2.3577398    150721.89     153812.3 
   71700    1328.4506    6497634.4    6724.9433    48.731617    2.3577398    150598.58    153742.71 
   71800    1250.0161    6500901.9    6724.9433    48.731617    2.3577398    150709.49    153667.98 
   71900    1284.4882      6498940    6724.9433    48.731617    2.3577398    150647.15    153687.23 
   72000    1300.3972    6500808.3    6724.9433    48.731617    2.3577398    150688.15    153765.88 
   72100    1309.1619    6503636.7    6724.9433    48.731617    2.3577398    150752.95    153851.43 
   72200    1321.4133    6503074.2    6724.9433    48.731617    2.3577398    150733.54    153861.01 
   72300    1287.1998    6501991.5    6724.9433    48.731617    2.3577398     150720.8     153767.3 
   72400     1326.559    6495367.9    6724.9433    48.731617    2.3577398    150545.36    153685.01 
   72500     1256.225    6498969.4    6724.9433    48.731617    2.3577398    150659.13    153632.32 
   72600    1276.9366    6499892.9    6724.9433    48.731617    2.3577398    150673.24    153695.45 
   72700    1351.0888    6498440.6    6724.9433    48.731617    2.3577398    150610.42    153808.13 
   72800    1262.5962    6508399.2    6724.9433    48.731617    2.3577398    150885.48    153873.75 
   72900    1305.6612      6503209    6724.9433    48.731617    2.3577398     150742.2    153832.39 
   73000    1276.7165    6500421.8    6724.9433    48.731617    2.3577398    150686.52    153708.21 
   73100     1235.224    6500733.5    6724.9433    48.731617    2.3577398    150711.14    153634.62 
   73200    1302.8857    6496350.6    6724.9433    48.731617    2.3577398    150577.07    153660.69 
   73300    1326.3089    6499761.4    6724.9433    48.731617    2.3577398    150651.19    153790.24 
   73400    1333.1835    6503013.2    6724.9433    48.731617    2.3577398    150728.11    153883.44 
   73500    1290.3652    6505327.8    6724.9433    48.731617    2.3577398    150801.61    153855.59 
   73600    1316.5704    6499228.8    6724.9433    48.731617    2.3577398    150642.11    153758.13 
   73700    1272.5027    6498163.9    6724.9433    48.731617    2.3577398    150633.72    153645.43 
   73800    1294.2496    6495222.5    6724.9433    48.731617    2.3577398    150554.68    153617.87 
   73900    1322.4062    6497182.4    6724.9433    48.731617    2.3577398     150589.9    153719.72 
   74000    1301.4601    6503850.1    6724.9433    48.731617    2.3577398    150760.35     153840.6 
   74100    1376.7364    6500332.2    6724.9433    48.731617    2.3577398    150647.18    153905.59 
   74200    1297.6551    6503550.3    6724.9433    48.731617    2.3577398    150755.22    153826.47 
   74300    1300.7285    6497229.1    6724.9433    48.731617    2.3577398    150599.04    153677.55 
   74400    1260.9476    6497450.4    6724.9433    48.731617    2.3577398    150621.61    153605.98 
   74500    1302.5795    6496426.5    6724.9433    48.731617    2.3577398    150579.17    153662.06 
   74600    1296.7134    6502534.6    6724.9433    48.731617    2.3577398    150730.07    153799.08 
   74700    1353.4503    6502043.6    6724.9433    48.731617    2.3577398    150696.37    153899.66 
   74800    1324.8683    6503040.6    6724.9433    48.731617    2.3577398    150733.04    153868.69 
   74900    1287.6867    6501239.1    6724.9433    48.731617    2.3577398    150703.17    153750.82 
   75000    1258.9145    6498836.5    6724.9433    48.731617    2.3577398    150654.88    153634.43 
   75100    1327.3279    6492830.9    6724.9433    48.731617    2.3577398    150482.58    153624.05 
   75200    1313.4896    6498548.1    6724.9433    48.731617    2.3577398    150627.08     153735.8 
   75300    1341.0461    6501574.7    6724.9433    48.731617    2.3577398    150690.28    153864.22 
   75400    1322.7406    6504426.3    6724.9433    48.731617    2.3577398    150766.15    153896.77 
   75500    1283.7423    6502976.2    6724.9433    48.731617    2.3577398    150745.79     153784.1 
   75600    1296.0494    6497196.3    6724.9433    48.731617    2.3577398    150602.23    153669.67 
   75700    1321.5996    6493261.6    6724.9433    48.731617    2.3577398    150496.11    153624.02 
[...]
  381700    1265.8213    6494693.2    6724.9433    48.731617    2.3577398    150553.08    153548.98 
  381800    1320.9575    6495043.2    6724.9433    48.731617    2.3577398    150538.11     153664.5 
  381900    1327.8993    6501765.6    6724.9433    48.731617    2.3577398    150700.43    153843.26 
  382000    1324.5532    6501609.9    6724.9433    48.731617    2.3577398    150697.47    153832.37 
  382100     1317.902      6498902    6724.9433    48.731617    2.3577398    150633.93    153753.09 
  382200    1282.1323    6498451.1    6724.9433    48.731617    2.3577398     150635.3     153669.8 
  382300    1213.5793    6497943.7    6724.9433    48.731617    2.3577398    150652.38    153524.64 
  382400    1268.5023    6491027.4    6724.9433    48.731617    2.3577398    150462.15    153464.39 
  382500    1282.2375    6498937.4    6724.9433    48.731617    2.3577398    150649.07    153683.82 
  382600     1300.835    6502933.4    6724.9433    48.731617    2.3577398     150738.5    153817.27 
  382700    1306.2616    6502973.4    6724.9433    48.731617    2.3577398     150735.5    153827.12 
  382800    1277.4083    6501497.1    6724.9433    48.731617    2.3577398    150713.22    153736.54 
  382900    1274.9359    6495441.9    6724.9433    48.731617    2.3577398    150567.06    153584.53 
  383000    1267.3666    6494269.9    6724.9433    48.731617    2.3577398    150542.11    153541.67 
  383100    1224.4143    6507745.4    6724.9433    48.731617    2.3577398    150885.43    153783.33 
  383200    1311.1802    6505569.4    6724.9433    48.731617    2.3577398    150797.65    153900.91 
  383300    1289.7221    6503969.1    6724.9433    48.731617    2.3577398    150767.05    153819.51 
  383400     1304.139      6496667    6724.9433    48.731617    2.3577398    150584.78    153671.37 
  383500    1260.9233    6497428.5    6724.9433    48.731617    2.3577398    150620.26    153604.57 
  383600    1268.6308    6501374.2    6724.9433    48.731617    2.3577398    150713.52    153716.06 
  383700    1366.3892    6504531.3    6724.9433    48.731617    2.3577398    150752.25    153986.17 
  383800     1319.568      6505841    6724.9433    48.731617    2.3577398    150800.42    153923.52 
  383900    1328.0211    6498937.9    6724.9433    48.731617    2.3577398    150630.97    153774.09 
  384000    1292.0809    6497104.1    6724.9433    48.731617    2.3577398    150600.69    153658.74 
  384100    1309.2862    6496303.8    6724.9433    48.731617    2.3577398    150574.19    153672.96 
  384200    1291.6773    6503839.3    6724.9433    48.731617    2.3577398    150763.63    153820.72 
  384300    1396.2251    6503028.8    6724.9433    48.731617    2.3577398    150702.77     154007.3 
  384400    1385.7381    6500578.8    6724.9433    48.731617    2.3577398    150649.25    153928.97 
  384500    1333.2607      6498654    6724.9433    48.731617    2.3577398       150622    153777.51 
  384600    1296.4339    6499496.5    6724.9433    48.731617    2.3577398    150656.42    153724.78 
  384700    1257.2646    6502405.7    6724.9433    48.731617    2.3577398    150742.41    153718.06 
  384800    1298.5814      6501665    6724.9433    48.731617    2.3577398    150708.89    153782.33 
  384900    1307.3145    6509416.8    6724.9433    48.731617    2.3577398    150892.63    153986.73 
  385000    1353.8083    6506450.2    6724.9433    48.731617    2.3577398    150802.61    154006.75 
  385100      1301.42    6501970.6    6724.9433    48.731617    2.3577398    150714.72    153794.87 
  385200    1314.3824    6497413.8    6724.9433    48.731617    2.3577398    150599.43    153710.26 
  385300    1322.9448    6496972.1    6724.9433    48.731617    2.3577398    150585.27    153716.37 
  385400    1366.4312    6496327.7    6724.9433    48.731617    2.3577398    150552.94    153786.96 
  385500    1349.7255    6503745.5    6724.9433    48.731617    2.3577398    150738.56    153933.04 
  385600     1358.281    6507057.1    6724.9433    48.731617    2.3577398    150815.08    154029.81 
  385700    1332.1036    6501585.9    6724.9433    48.731617    2.3577398     150693.4    153846.17 
  385800    1291.4145    6498106.9    6724.9433    48.731617    2.3577398    150625.48    153681.95 
  385900    1260.1417    6500205.6    6724.9433    48.731617    2.3577398    150687.33    153669.79 
  386000    1315.1931    6500213.9    6724.9433    48.731617    2.3577398     150665.7    153778.45 
  386100    1338.3292    6504144.6    6724.9433    48.731617    2.3577398    150753.15    153920.66 
  386200    1333.4314    6506172.2    6724.9433    48.731617    2.3577398    150803.89    153959.81 
  386300    1303.5956    6498231.4    6724.9433    48.731617    2.3577398    150622.86    153708.17 
  386400    1279.2858    6496257.1    6724.9433    48.731617    2.3577398    150585.83     153613.6 
  386500    1280.5281    6498868.1    6724.9433    48.731617    2.3577398    150647.18    153677.89 
  386600     1339.441    6500458.9    6724.9433    48.731617    2.3577398    150663.83    153833.97 
  386700    1351.3352    6502557.4    6724.9433    48.731617    2.3577398    150709.64    153907.93 
  386800    1337.3006    6498397.1    6724.9433    48.731617    2.3577398    150612.93       153778 
  386900    1278.8373    6493904.5    6724.9433    48.731617    2.3577398    150527.62    153554.32 
  387000    1277.7485    6496729.4    6724.9433    48.731617    2.3577398    150597.33    153621.46 
  387100    1301.8314    6501122.9    6724.9433    48.731617    2.3577398    150693.92    153775.04 
  387200    1306.3599    6503886.4    6724.9433    48.731617    2.3577398    150759.28    153851.12 
  387300    1322.2188      6501888    6724.9433    48.731617    2.3577398    150704.85    153834.23 
  387400    1270.1555      6496083    6724.9433    48.731617    2.3577398     150583.2    153589.35 
  387500    1296.8447      6491872    6724.9433    48.731617    2.3577398    150471.47    153540.79 
  387600    1260.8902    6500323.4    6724.9433    48.731617    2.3577398    150690.55    153674.78 
  387700    1265.4986      6504589    6724.9433    48.731617    2.3577398    150792.03    153787.16 
  387800    1340.7384      6499548    6724.9433    48.731617    2.3577398    150640.84    153814.05 
  387900    1326.9016    6499233.4    6724.9433    48.731617    2.3577398    150638.41    153778.87 
  388000    1298.9762    6493914.7    6724.9433    48.731617    2.3577398    150520.77    153595.14 
  388100    1259.4847    6491530.5    6724.9433    48.731617    2.3577398     150477.1       153458 
  388200    1262.1129    6496267.2    6724.9433    48.731617    2.3577398    150592.65    153579.77 
  388300    1324.9211    6496994.9    6724.9433    48.731617    2.3577398    150584.09    153719.86 
  388400    1325.9056    6499657.9    6724.9433    48.731617    2.3577398    150650.26    153788.36 
  388500     1321.927    6501429.9    6724.9433    48.731617    2.3577398    150692.62     153821.3 
  388600     1271.438    6502096.2    6724.9433    48.731617    2.3577398    150729.92    153739.11 
  388700    1266.9619    6494266.2    6724.9433    48.731617    2.3577398    150541.99    153540.59 
  388800    1214.2045    6498596.7    6724.9433    48.731617    2.3577398    150668.08    153541.81 
  388900    1260.2262    6502820.6    6724.9433    48.731617    2.3577398     150750.9    153733.55 
  389000    1292.5613    6503420.1    6724.9433    48.731617    2.3577398    150753.74    153812.93 
  389100    1328.4346    6499452.1    6724.9433    48.731617    2.3577398    150642.68    153786.77 
  389200    1301.2881    6498863.2    6724.9433    48.731617    2.3577398    150639.55    153719.39 
  389300     1276.415    6495309.2    6724.9433    48.731617    2.3577398     150563.3    153584.27 
  389400     1185.952    6498664.7    6724.9433    48.731617    2.3577398    150678.01    153484.88 
  389500    1311.5692    6494535.2    6724.9433    48.731617    2.3577398     150529.5    153633.67 
  389600    1311.2454    6502220.8    6724.9433    48.731617    2.3577398    150716.89     153820.3 
  389700    1353.3327    6500187.8    6724.9433    48.731617    2.3577398    150650.73    153853.75 
  389800    1285.2267      6502931    6724.9433    48.731617    2.3577398    150745.28     153787.1 
  389900    1293.5296    6494677.9    6724.9433    48.731617    2.3577398    150542.09    153603.56 
  390000      1271.31    6494290.5    6724.9433    48.731617    2.3577398    150540.21     153549.1 
  390100    1252.1311    6501172.4    6724.9433    48.731617    2.3577398    150714.36    153677.86 
  390200    1220.7005    6508087.5    6724.9433    48.731617    2.3577398    150894.71    153783.81 
  390300    1327.1315    6499447.1    6724.9433    48.731617    2.3577398    150642.85    153783.86 
  390400    1314.3593    6499157.5    6724.9433    48.731617    2.3577398     150641.1    153751.87 
  390500    1370.3758    6492206.9    6724.9433    48.731617    2.3577398    150450.33    153693.68 
  390600    1283.2819      6496353    6724.9433    48.731617    2.3577398    150586.07     153623.3 
  390700    1246.1415      6499808    6724.9433    48.731617    2.3577398    150684.25    153633.57 
  390800    1321.9564    6500948.4    6724.9433    48.731617    2.3577398     150680.5    153809.25 
  390900    1372.8495    6501703.8    6724.9433    48.731617    2.3577398    150680.51    153929.72 
  391000     1300.937    6504945.9    6724.9433    48.731617    2.3577398    150787.71    153866.72 
  391100    1292.3111    6497775.1    6724.9433    48.731617    2.3577398    150616.18    153674.77 
  391200    1261.0842      6498884    6724.9433    48.731617    2.3577398    150655.74    153640.43 
  391300    1267.1976    6500754.3    6724.9433    48.731617    2.3577398    150698.87    153698.02 
  391400    1267.6799      6504771    6724.9433    48.731617    2.3577398    150796.18    153796.48 
  391500    1309.1756    6505270.1    6724.9433    48.731617    2.3577398    150792.53    153891.04 
  391600    1345.7522    6503793.2    6724.9433    48.731617    2.3577398    150741.15    153926.23 
  391700    1318.3474    6500569.8    6724.9433    48.731617    2.3577398    150674.86    153795.07 
  391800    1257.6466    6498511.9    6724.9433    48.731617    2.3577398    150647.06    153623.61 
  391900    1265.5856    6497670.4    6724.9433    48.731617    2.3577398    150624.22    153619.56 
  392000    1285.4987    6501838.3    6724.9433    48.731617    2.3577398    150717.78    153760.25 
  392100    1289.8137    6507927.9    6724.9433    48.731617    2.3577398    150863.33    153916.01 
  392200     1339.241    6502502.5    6724.9433    48.731617    2.3577398    150713.83     153883.5 
  392300    1326.9798    6499768.9    6724.9433    48.731617    2.3577398    150651.21    153791.86 
  392400    1307.0617    6499421.1    6724.9433    48.731617    2.3577398     150651.1    153744.61 
  392500    1267.3561    6501051.1    6724.9433    48.731617    2.3577398    150706.12    153705.66 
  392600    1271.7981    6498341.7    6724.9433    48.731617    2.3577398    150638.77    153648.81 
  392700    1291.1152      6494758    6724.9433    48.731617    2.3577398    150545.35    153601.11 
  392800    1312.5075    6497088.9    6724.9433    48.731617    2.3577398    150591.64    153698.04 
  392900     1320.846    6502829.6    6724.9433    48.731617    2.3577398    150728.37     153854.5 
  393000    1297.2897    6505619.5    6724.9433    48.731617    2.3577398    150804.31    153874.69 
  393100    1265.4559    6502071.3    6724.9433    48.731617    2.3577398    150731.58    153726.62 
  393200    1253.8391    6495491.1    6724.9433    48.731617    2.3577398    150576.76     153544.3 
  393300     1244.961    6498409.3    6724.9433    48.731617    2.3577398    150651.43    153597.96 
  393400    1282.9622    6500339.9    6724.9433    48.731617    2.3577398    150682.19    153718.66 
  393500    1311.0353    6501038.9    6724.9433    48.731617    2.3577398    150687.63    153790.54 
  393600    1321.7383    6500569.5    6724.9433    48.731617    2.3577398    150673.65    153801.89 
  393700    1295.6495    6501276.3    6724.9433    48.731617    2.3577398    150700.72    153767.22 
  393800    1273.7499    6494836.1    6724.9433    48.731617    2.3577398    150551.21    153565.88 
  393900    1236.2621    6493545.5    6724.9433    48.731617    2.3577398    150535.41    153461.35 
  394000    1321.1057    6493438.5    6724.9433    48.731617    2.3577398    150500.53    153627.28 
  394100    1303.4522    6500730.5    6724.9433    48.731617    2.3577398    150683.11    153768.07 
  394200    1350.4412    6498848.4    6724.9433    48.731617    2.3577398    150620.05    153816.23 
  394300    1311.6372    6500905.7    6724.9433    48.731617    2.3577398     150684.1    153788.44 
  394400    1278.4164      6496827    6724.9433    48.731617    2.3577398    150599.94    153625.65 
  394500    1228.3931    6495637.5    6724.9433    48.731617    2.3577398    150588.07    153495.39 
  394600    1303.9716      6494472    6724.9433    48.731617    2.3577398    150532.31     153618.5 
  394700    1270.8096    6502601.4    6724.9433    48.731617    2.3577398    150742.03    153749.74 
  394800    1277.1183    6502999.3    6724.9433    48.731617    2.3577398    150749.73    153772.37 
  394900    1325.9521    6499219.3    6724.9433    48.731617    2.3577398    150638.23    153776.44 
  395000    1311.7078    6498963.1    6724.9433    48.731617    2.3577398    150637.87    153742.37 
  395100     1286.047    6496658.6    6724.9433    48.731617    2.3577398    150592.53     153636.3 
  395200     1256.259    6496721.3    6724.9433    48.731617    2.3577398    150605.94    153579.21 
  395300    1297.8998    6498025.3    6724.9433    48.731617    2.3577398     150620.4    153692.22 
  395400    1341.3271    6502100.9    6724.9433    48.731617    2.3577398    150702.19    153876.79 
  395500    1313.8821    6503729.7    6724.9433    48.731617    2.3577398    150752.32    153861.97 
  395600    1304.3429    6500022.1    6724.9433    48.731617    2.3577398    150664.67    153751.74 
  395700    1265.4426    6496988.4    6724.9433    48.731617    2.3577398    150607.65    153602.65 
  395800    1239.5326    6493458.8    6724.9433    48.731617    2.3577398     150531.9    153465.58 
  395900     1220.246    6489719.3    6724.9433    48.731617    2.3577398     150449.9    153337.93 
  396000    1221.2749    6498131.9    6724.9433    48.731617    2.3577398    150653.69    153544.16 
  396100    1279.3679    6499816.7    6724.9433    48.731617    2.3577398    150671.58    153699.54 
  396200    1304.8304    6502462.4    6724.9433    48.731617    2.3577398    150725.25    153813.47 
  396300    1325.1631    6502964.8    6724.9433    48.731617    2.3577398    150729.87    153866.22 
  396400    1318.6938    6501585.1    6724.9433    48.731617    2.3577398    150699.34    153820.38 
  396500    1286.3893    6495718.9    6724.9433    48.731617    2.3577398    150570.86    153615.44 
  396600    1228.8184    6498323.5    6724.9433    48.731617    2.3577398    150653.65    153561.97 
  396700    1266.5607    6499899.9    6724.9433    48.731617    2.3577398    150679.19    153676.84 
  396800    1326.4159    6501745.8    6724.9433    48.731617    2.3577398    150698.84    153838.15 
  396900    1312.3843    6502265.9    6724.9433    48.731617    2.3577398    150718.54    153824.64 
  397000    1315.4141    6499841.8    6724.9433    48.731617    2.3577398    150656.24    153769.52 
  397100    1258.9535    6500397.9    6724.9433    48.731617    2.3577398    150693.47    153673.12 
  397200    1218.2291      6500285    6724.9433    48.731617    2.3577398    150707.04     153590.3 
  397300    1255.4559    6495730.1    6724.9433    48.731617    2.3577398    150582.67    153554.04 
  397400    1292.3833    6499282.5    6724.9433    48.731617    2.3577398    150653.08    153711.84 
  397500    1367.1237    6499883.5    6724.9433    48.731617    2.3577398     150639.3    153874.96 
  397600    1320.4082      6503457    6724.9433    48.731617    2.3577398     150743.1     153868.2 
  397700    1265.2272    6502367.2    6724.9433    48.731617    2.3577398    150738.82    153733.32 
  397800    1270.6649    6495172.8    6724.9433    48.731617    2.3577398    150563.24    153570.61 
  397900    1275.4073    6496154.6    6724.9433    48.731617    2.3577398    150583.76    153602.35 
  398000    1246.6261    6501068.8    6724.9433    48.731617    2.3577398    150713.34    153663.81 
  398100    1342.5982      6497169    6724.9433    48.731617    2.3577398    150581.65    153759.26 
  398200    1323.2206    6502607.2    6724.9433    48.731617    2.3577398    150721.77    153853.52 
  398300    1311.0694      6506062    6724.9433    48.731617    2.3577398    150809.96    153912.95 
  398400    1340.3104    6502399.7    6724.9433    48.731617    2.3577398    150710.58    153882.78 
  398500    1245.0719    6502606.8    6724.9433    48.731617    2.3577398    150751.47    153698.27 
  398600    1295.7309    6494568.1    6724.9433    48.731617    2.3577398    150538.67    153605.36 
  398700    1288.0938    6497132.4    6724.9433    48.731617    2.3577398    150602.57    153651.18 
  398800     1299.942    6504604.8    6724.9433    48.731617    2.3577398    150780.27    153856.93 
  398900    1341.4307      6504409    6724.9433    48.731617    2.3577398    150758.34    153933.19 
  399000    1388.7798    6497992.5    6724.9433    48.731617    2.3577398     150585.5    153872.41 
  399100    1310.9819    6500291.1    6724.9433    48.731617    2.3577398    150669.51    153772.29 
  399200    1327.8866    6496097.9    6724.9433    48.731617    2.3577398    150562.24    153705.03 
  399300    1259.2635    6500945.2    6724.9433    48.731617    2.3577398    150705.54    153685.91 
  399400    1305.1823    6500510.2    6724.9433    48.731617    2.3577398    150678.12    153767.18 
  399500    1338.9611    6506187.2    6724.9433    48.731617    2.3577398     150802.1    153971.11 
  399600    1344.0137      6504636    6724.9433    48.731617    2.3577398    150761.51    153942.47 
  399700    1286.2685    6501635.4    6724.9433    48.731617    2.3577398     150712.6     153756.9 
  399800    1268.6779    6498930.6    6724.9433    48.731617    2.3577398    150654.09    153656.75 
  399900    1250.5317    6501624.3    6724.9433    48.731617    2.3577398    150725.33    153685.04 
  400000    1297.9678    6501399.7    6724.9433    48.731617    2.3577398    150703.86    153775.84 
  400100    1377.3749    6504711.2    6724.9433    48.731617    2.3577398    150751.94    154011.86 
Loop time of 337.434 on 1 procs for 400000 steps with 795 atoms

Performance: 25.605 ns/day, 0.937 hours/ns, 1185.418 timesteps/s
99.8% CPU use with 1 MPI tasks x no OpenMP threads

MPI task timing breakdown:
Section |  min time  |  avg time  |  max time  |%varavg| %total
---------------------------------------------------------------
Pair    | 290        | 290        | 290        |   0.0 | 85.94
Neigh   | 22.574     | 22.574     | 22.574     |   0.0 |  6.69
Comm    | 14.229     | 14.229     | 14.229     |   0.0 |  4.22
Output  | 1.3813     | 1.3813     | 1.3813     |   0.0 |  0.41
Modify  | 6.0726     | 6.0726     | 6.0726     |   0.0 |  1.80
Other   |            | 3.18       |            |       |  0.94

Nlocal:            795 ave         795 max         795 min
Histogram: 1 0 0 0 0 0 0 0 0 0
Nghost:           6193 ave        6193 max        6193 min
Histogram: 1 0 0 0 0 0 0 0 0 0
Neighs:          53601 ave       53601 max       53601 min
Histogram: 1 0 0 0 0 0 0 0 0 0

Total # of neighbors = 53601
Ave neighs/atom = 67.422642
Neighbor list builds = 13341
Dangerous builds = 33

write_data graphene_single_layer_LJ_795C_after_temp_1300K_nv.data ### MODIFY FILE NAME ###
System init for write_data ...
  generated 0 of 0 mixed pair_coeff terms from geometric mixing rule
Total wall time: 0:05:37
