# System definition
read_data graphene_single_layer_x-45_y_45_795_C_nv.data  ### MODIFY FILE NAME ###
Reading data file ...
  orthogonal box = (-1.4464652 -1.4423034 -1.42) to (47.285152 47.149102 1.42)
  1 by 1 by 1 MPI processor grid
  reading atoms ...
  795 atoms
  reading velocities ...
  795 velocities
  read_data CPU = 0.023 seconds
pair_style lj/cut 6
pair_coeff      1 1 0.066047 3.4

# Virtual force wall to keep the cylinder shape
#region myCylinder cylinder z 0. 0. 20.3 -22.079997 505.920003 units box
#fix wall all wall/region myCylinder lj93 1.0 1.0 2.5

# Minimization
timestep 0.25
thermo 100
thermo_style custom step temp press vol lx density pe etotal
dump 2 all custom 1000 graphene_single_layer_LJ_795C_after_temp_800K_nv.lammpstrj id type x y z ### MODIFY FILE NAME ###
min_style cg
minimize 1.0e-6 1.0e-6 100 1000
WARNING: Using 'neigh_modify every 1 delay 0 check yes' setting during minimization (../min.cpp:187)
  generated 0 of 0 mixed pair_coeff terms from geometric mixing rule
Neighbor list info ...
  update every 1 steps, delay 0 steps, check yes
  max neighbors/atom: 10000, page size: 100000
  master list distance cutoff = 6.4
  ghost atom cutoff = 6.4
  binsize = 3.2, bins = 16 16 1
  1 neighbor lists, perpetual/occasional/extra = 1 0 0
  (1) pair lj/cut, perpetual
      attributes: half, newton on
      pair build: half/bin/atomonly/newton
      stencil: half/bin/3d
      bin: standard
Per MPI rank memory allocation (min/avg/max) = 5.847 | 5.847 | 5.847 Mbytes
Step Temp Press Volume Lx Density PotEng TotEng 
       0          923 3.5764745e+08    6724.9433    48.731617    2.3577398    8739313.6    8741498.1 
     100          923     47792497    6724.9433    48.731617    2.3577398    1156645.3    1158829.8 
Loop time of 0.203143 on 1 procs for 100 steps with 795 atoms

100.0% CPU use with 1 MPI tasks x no OpenMP threads

Minimization stats:
  Stopping criterion = max iterations
  Energy initial, next-to-last, final = 
       8739313.5743934   1166159.30364263   1156645.25969717
  Force two-norm initial, final = 757147.49 41890.076
  Force max component initial, final = 127132.22 10243.229
  Final line search alpha, max atom move = 3.9224736e-06 0.040178794
  Iterations, force evaluations = 100 123

MPI task timing breakdown:
Section |  min time  |  avg time  |  max time  |%varavg| %total
---------------------------------------------------------------
Pair    | 0.13665    | 0.13665    | 0.13665    |   0.0 | 67.27
Neigh   | 0.056641   | 0.056641   | 0.056641   |   0.0 | 27.88
Comm    | 0.005799   | 0.005799   | 0.005799   |   0.0 |  2.85
Output  | 7.36e-05   | 7.36e-05   | 7.36e-05   |   0.0 |  0.04
Modify  | 0          | 0          | 0          |   0.0 |  0.00
Other   |            | 0.003981   |            |       |  1.96

Nlocal:            795 ave         795 max         795 min
Histogram: 1 0 0 0 0 0 0 0 0 0
Nghost:           5526 ave        5526 max        5526 min
Histogram: 1 0 0 0 0 0 0 0 0 0
Neighs:          50620 ave       50620 max       50620 min
Histogram: 1 0 0 0 0 0 0 0 0 0

Total # of neighbors = 50620
Ave neighs/atom = 63.672956
Neighbor list builds = 37
Dangerous builds = 0
#timestep 0.25
fix 1 all nvt temp 800.0 800.0 $(100.0*dt) ### MODIFY INITIAL TEMP, FINAL TEMP ###
fix 1 all nvt temp 800.0 800.0 25 
run 400000
  generated 0 of 0 mixed pair_coeff terms from geometric mixing rule
Per MPI rank memory allocation (min/avg/max) = 4.725 | 4.725 | 4.725 Mbytes
Step Temp Press Volume Lx Density PotEng TotEng 
     100          923     47792497    6724.9433    48.731617    2.3577398    1156645.3    1158829.8 
     200      18086.1     10602975    6724.9433    48.731617    2.3577398     243764.8    286570.32 
     300    4877.7429    8246700.1    6724.9433    48.731617    2.3577398    191657.44     203201.9 
     400    2243.5686    7665954.4    6724.9433    48.731617    2.3577398    178582.76    183892.75 
     500    1312.9038    7423726.6    6724.9433    48.731617    2.3577398    173063.09    176170.42 
     600    1080.0255    7277475.1    6724.9433    48.731617    2.3577398    169605.14     172161.3 
     700    944.99567    7172137.5    6724.9433    48.731617    2.3577398       167100    169336.58 
     800    1027.5147    7063685.9    6724.9433    48.731617    2.3577398    164435.81     166867.7 
     900    773.37147    6999247.7    6724.9433    48.731617    2.3577398    162975.43    164805.82 
    1000    845.02918    6935634.8    6724.9433    48.731617    2.3577398    161404.37    163404.35 
    1100    880.75419    6875187.4    6724.9433    48.731617    2.3577398    159923.55    162008.09 
    1200    775.74053    6834350.6    6724.9433    48.731617    2.3577398    158973.88    160809.88 
    1300    697.16667    6808041.8    6724.9433    48.731617    2.3577398    158364.45    160014.48 
    1400    697.77417      6794010    6724.9433    48.731617    2.3577398    158022.51    159673.98 
    1500    690.29921    6799230.5    6724.9433    48.731617    2.3577398    158151.73     159785.5 
    1600    795.56278    6812795.6    6724.9433    48.731617    2.3577398    158441.97    160324.88 
    1700    978.50921    6819802.2    6724.9433    48.731617    2.3577398    158540.38    160856.28 
    1800    1036.0779    6797046.9    6724.9433    48.731617    2.3577398    157965.67    160417.82 
    1900     827.9678    6755506.6    6724.9433    48.731617    2.3577398    157041.48    159001.09 
    2000    700.91093    6719646.3    6724.9433    48.731617    2.3577398    156221.83    157880.73 
    2100    708.83575    6693808.9    6724.9433    48.731617    2.3577398    155589.59    157267.24 
    2200    666.96977      6684139    6724.9433    48.731617    2.3577398    155372.02    156950.58 
    2300    780.81179    6674875.1    6724.9433    48.731617    2.3577398    155101.79    156949.79 
    2400    723.21502    6682320.3    6724.9433    48.731617    2.3577398    155306.62     157018.3 
    2500    821.65055    6685647.2    6724.9433    48.731617    2.3577398    155348.15     157292.8 
    2600    862.30123    6692005.2    6724.9433    48.731617    2.3577398    155484.95    157525.82 
    2700    1017.6598      6678058    6724.9433    48.731617    2.3577398    155088.09    157496.65 
    2800    910.74448    6648312.4    6724.9433    48.731617    2.3577398    154409.87    156565.39 
    2900      644.952    6629673.2    6724.9433    48.731617    2.3577398    154062.48    155588.93 
    3000    622.73619    6618695.5    6724.9433    48.731617    2.3577398    153803.67    155277.54 
    3100    699.47958    6626794.7    6724.9433    48.731617    2.3577398    153968.96    155624.47 
    3200    870.14326    6645115.9    6724.9433    48.731617    2.3577398    154348.63    156408.06 
    3300    973.44912    6657091.1    6724.9433    48.731617    2.3577398    154599.24    156903.16 
    3400    914.31602      6648420    6724.9433    48.731617    2.3577398    154412.64    156576.61 
    3500    762.81998    6626005.1    6724.9433    48.731617    2.3577398    153925.58    155730.99 
    3600    666.05611    6608221.1    6724.9433    48.731617    2.3577398    153532.27    155108.66 
    3700    646.99769    6605995.3    6724.9433    48.731617    2.3577398    153486.43    155017.72 
    3800    763.80833    6615122.4    6724.9433    48.731617    2.3577398    153663.41    155471.16 
    3900    886.80584    6632271.3    6724.9433    48.731617    2.3577398    154031.63    156130.48 
    4000    972.72641    6631617.7    6724.9433    48.731617    2.3577398    153980.28     156282.5 
    4100    830.46435      6621071    6724.9433    48.731617    2.3577398    153780.39    155745.91 
    4200    717.72769    6606141.3    6724.9433    48.731617    2.3577398    153463.31       155162 
    4300     658.7538    6602021.2    6724.9433    48.731617    2.3577398    153385.18    154944.29 
    4400    718.78061    6607982.6    6724.9433    48.731617    2.3577398    153506.36    155207.54 
    4500    869.30409    6618230.6    6724.9433    48.731617    2.3577398    153696.51    155753.95 
    4600    917.04605    6627486.3    6724.9433    48.731617    2.3577398    153903.39    156073.82 
    4700    860.37958    6622675.8    6724.9433    48.731617    2.3577398    153809.46    155845.78 
    4800    809.39079    6609932.3    6724.9433    48.731617    2.3577398    153520.87    155436.51 
    4900     717.4076    6606479.4    6724.9433    48.731617    2.3577398    153471.11    155169.04 
    5000    762.34889    6605803.9    6724.9433    48.731617    2.3577398     153437.3    155241.59 
    5100    800.40102    6614207.9    6724.9433    48.731617    2.3577398    153627.78    155522.14 
    5200    882.84975    6617514.8    6724.9433    48.731617    2.3577398    153675.07    155764.56 
    5300    825.91574    6622167.1    6724.9433    48.731617    2.3577398    153808.14    155762.89 
    5400    796.05926    6618842.4    6724.9433    48.731617    2.3577398    153739.11    155623.19 
    5500     783.9561    6613868.8    6724.9433    48.731617    2.3577398    153624.76     155480.2 
    5600    774.56673    6610273.9    6724.9433    48.731617    2.3577398    153542.35    155375.57 
    5700      755.239    6612410.3    6724.9433    48.731617    2.3577398     153600.4    155387.88 
    5800    773.94129    6614751.2    6724.9433    48.731617    2.3577398    153648.91    155480.64 
    5900    795.59656    6619553.1    6724.9433    48.731617    2.3577398    153758.06    155641.05 
    6000    846.07988      6618924    6724.9433    48.731617    2.3577398    153723.19    155725.66 
    6100    841.53113    6615977.8    6724.9433    48.731617    2.3577398    153652.78    155644.49 
    6200    787.59826    6614091.7    6724.9433    48.731617    2.3577398    153628.71    155492.76 
    6300    755.86006    6611028.2    6724.9433    48.731617    2.3577398    153566.68    155355.63 
    6400    774.34971    6609847.1    6724.9433    48.731617    2.3577398    153531.96    155364.66 
    6500    798.01038    6612095.8    6724.9433    48.731617    2.3577398    153577.62    155466.33 
    6600    780.72153    6621615.5    6724.9433    48.731617    2.3577398     153814.9    155662.68 
    6700     866.0414    6621064.8    6724.9433    48.731617    2.3577398    153766.67    155816.38 
    6800    832.35928    6619936.5    6724.9433    48.731617    2.3577398    153753.25    155723.25 
    6900    778.45855    6613308.1    6724.9433    48.731617    2.3577398    153613.28    155455.71 
    7000    733.77711    6608454.4    6724.9433    48.731617    2.3577398    153513.53    155250.21 
    7100    719.62389    6610372.3    6724.9433    48.731617    2.3577398    153566.07    155269.24 
    7200     806.2522    6613673.4    6724.9433    48.731617    2.3577398    153611.74    155519.95 
    7300    850.02974    6622230.6    6724.9433    48.731617    2.3577398    153802.88     155814.7 
    7400    836.24214    6625705.2    6724.9433    48.731617    2.3577398    153891.16    155870.35 
    7500    837.17071    6614865.4    6724.9433    48.731617    2.3577398    153629.15    155610.53 
    7600    735.43425    6609653.9    6724.9433    48.731617    2.3577398    153542.08    155282.68 
    7700    711.57692    6607811.7    6724.9433    48.731617    2.3577398    153505.07    155189.21 
    7800    767.48408    6610916.6    6724.9433    48.731617    2.3577398     153559.8    155376.25 
    7900    877.67411    6617138.4    6724.9433    48.731617    2.3577398    153668.76       155746 
    8000    895.95954    6623678.6    6724.9433    48.731617    2.3577398    153820.09    155940.61 
    8100    847.43835    6620099.5    6724.9433    48.731617    2.3577398    153752.52    155758.21 
    8200    798.28959    6609709.5    6724.9433    48.731617    2.3577398    153519.01    155408.37 
    8300    709.01878    6607188.9    6724.9433    48.731617    2.3577398    153492.77    155170.85 
    8400    748.55192    6606925.4    6724.9433    48.731617    2.3577398    153470.53    155242.17 
    8500     828.6799    6614817.4    6724.9433    48.731617    2.3577398     153630.3    155591.59 
    8600    867.13303    6624291.6    6724.9433    48.731617    2.3577398    153845.53    155897.83 
    8700    870.42718    6623256.7    6724.9433    48.731617    2.3577398    153820.35    155880.45 
    8800    804.18063    6614501.4    6724.9433    48.731617    2.3577398    153631.91    155535.21 
    8900    732.97429    6607352.2    6724.9433    48.731617    2.3577398    153486.23       155221 
    9000    736.49958    6605668.5    6724.9433    48.731617    2.3577398    153445.15    155188.27 
    9100    777.39213    6613284.5    6724.9433    48.731617    2.3577398    153613.17    155453.07 
    9200    868.29704    6620971.2    6724.9433    48.731617    2.3577398    153764.77    155819.83 
    9300    881.54962    6624296.4    6724.9433    48.731617    2.3577398    153840.05    155926.47 
    9400    850.28138      6615943    6724.9433    48.731617    2.3577398    153648.18     155660.6 
    9500    747.63683    6609234.3    6724.9433    48.731617    2.3577398    153527.13    155296.61 
    9600    740.00597    6605218.8    6724.9433    48.731617    2.3577398     153432.5    155183.92 
    9700    774.53748    6610307.4    6724.9433    48.731617    2.3577398    153542.68    155375.83 
    9800    828.89846    6619907.9    6724.9433    48.731617    2.3577398    153753.46    155715.27 
    9900    874.56578    6622575.4    6724.9433    48.731617    2.3577398    153801.81     155871.7 
   10000    837.19964      6619092    6724.9433    48.731617    2.3577398    153731.85     155713.3 
   10100    777.32299    6612042.2    6724.9433    48.731617    2.3577398    153583.03    155422.77 
   10200     739.5807    6608129.7    6724.9433    48.731617    2.3577398    153502.67    155253.08 
   10300    762.92017    6608812.5    6724.9433    48.731617    2.3577398    153511.84    155317.49 
   10400    804.10723    6616254.3    6724.9433    48.731617    2.3577398    153675.43    155578.56 
   10500     887.2927    6619085.9    6724.9433    48.731617    2.3577398    153713.32    155813.34 
   10600    828.84426      6621852    6724.9433    48.731617    2.3577398    153801.91    155763.59 
   10700    766.02188    6616464.8    6724.9433    48.731617    2.3577398    153695.73    155508.72 
   10800    738.50172    6611104.4    6724.9433    48.731617    2.3577398    153576.67    155324.53 
   10900    751.44912    6610597.8    6724.9433    48.731617    2.3577398    153558.75    155337.26 
   11000    821.71186    6612484.7    6724.9433    48.731617    2.3577398    153576.77    155521.57 
   11100     837.8409    6619043.8    6724.9433    48.731617    2.3577398    153730.54    155713.51 
   11200    852.81262    6618878.6    6724.9433    48.731617    2.3577398    153718.11    155736.51 
   11300    799.06905    6616018.7    6724.9433    48.731617    2.3577398    153671.37    155562.58 
   11400     746.9034    6613268.1    6724.9433    48.731617    2.3577398    153624.62    155392.37 
   11500    757.34649    6612591.2    6724.9433    48.731617    2.3577398    153603.17    155395.63 
   11600    801.52884      6614417    6724.9433    48.731617    2.3577398    153632.71    155529.74 
   11700    825.78675    6617062.4    6724.9433    48.731617    2.3577398    153686.76     155641.2 
   11800    803.87367    6618588.9    6724.9433    48.731617    2.3577398    153732.67    155635.25 
   11900    818.31615    6614075.3    6724.9433    48.731617    2.3577398    153617.55    155554.31 
   12000    768.50049    6614659.6    6724.9433    48.731617    2.3577398     153650.4    155469.26 
   12100    776.22152    6613617.5    6724.9433    48.731617    2.3577398    153621.81    155458.94 
   12200    824.28137    6612708.8    6724.9433    48.731617    2.3577398    153581.29    155532.16 
   12300    816.75113    6616774.6    6724.9433    48.731617    2.3577398    153683.46    155616.51 
   12400    808.15712    6617062.5    6724.9433    48.731617    2.3577398    153691.25    155603.96 
   12500    782.88691    6614948.4    6724.9433    48.731617    2.3577398    153652.19    155505.09 
   12600     787.9927    6612839.6    6724.9433    48.731617    2.3577398    153597.41     155462.4 
   12700    792.61235      6613592    6724.9433    48.731617    2.3577398    153615.46    155491.39 
   12800    796.28285    6616839.7    6724.9433    48.731617    2.3577398    153692.82    155577.43 
   12900    839.24997    6615754.3    6724.9433    48.731617    2.3577398    153649.12    155635.43 
   13000    794.10036    6617333.7    6724.9433    48.731617    2.3577398    153704.91    155584.36 
   13100     769.4975    6614555.5    6724.9433    48.731617    2.3577398    153648.42    155469.63 
   13200    779.85488    6611653.2    6724.9433    48.731617    2.3577398    153574.14    155419.87 
   13300    801.22987    6613102.2    6724.9433    48.731617    2.3577398    153600.72    155497.05 
   13400    814.71283    6617145.9    6724.9433    48.731617    2.3577398    153693.36     155621.6 
   13500    819.23677    6618304.6    6724.9433    48.731617    2.3577398    153719.19    155658.13 
   13600      800.882    6616471.2    6724.9433    48.731617    2.3577398    153681.68    155577.18 
   13700    798.68147    6612769.4    6724.9433    48.731617    2.3577398    153593.17    155483.46 
   13800    767.67557    6613006.4    6724.9433    48.731617    2.3577398    153610.74    155427.65 
   13900    812.33092    6611297.4    6724.9433    48.731617    2.3577398     153551.1    155473.69 
   14000       775.28    6618472.9    6724.9433    48.731617    2.3577398    153740.97    155575.88 
   14100    844.78136    6616111.9    6724.9433    48.731617    2.3577398    153655.74    155655.14 
   14200    804.46526    6617504.6    6724.9433    48.731617    2.3577398    153706.43    155610.41 
   14300    798.11332    6613178.3    6724.9433    48.731617    2.3577398     153602.6    155491.55 
   14400    791.17262    6612032.9    6724.9433    48.731617    2.3577398    153577.94    155450.46 
   14500    763.75868    6616445.4    6724.9433    48.731617    2.3577398    153696.32    155503.96 
   14600     788.1348    6616930.4    6724.9433    48.731617    2.3577398    153697.65    155562.97 
   14700    804.46414    6616643.9    6724.9433    48.731617    2.3577398    153685.33    155589.31 
   14800    812.72984    6615810.1    6724.9433    48.731617    2.3577398    153660.64    155584.17 
   14900    785.84579    6615715.5    6724.9433    48.731617    2.3577398    153669.17    155529.08 
   15000    775.85683    6614586.6    6724.9433    48.731617    2.3577398    153645.94    155482.21 
   15100     776.7944    6615428.5    6724.9433    48.731617    2.3577398    153666.49    155504.98 
   15200    800.29177    6616054.9    6724.9433    48.731617    2.3577398    153672.64    155566.74 
   15300    790.36966    6618075.5    6724.9433    48.731617    2.3577398    153724.68     155595.3 
   15400    807.74069    6614623.1    6724.9433    48.731617    2.3577398    153634.25    155545.98 
   15500     817.2554    6612048.6    6724.9433    48.731617    2.3577398    153568.56    155502.81 
   15600    769.30869    6616141.4    6724.9433    48.731617    2.3577398    153686.85    155507.63 
   15700    781.07842    6616452.6    6724.9433    48.731617    2.3577398    153690.34    155538.97 
   15800    787.77859    6616850.2    6724.9433    48.731617    2.3577398    153696.59    155561.08 
   15900    815.15686    6615365.6    6724.9433    48.731617    2.3577398    153648.72    155578.01 
   16000    790.41975    6615867.6    6724.9433    48.731617    2.3577398    153670.81    155541.55 
   16100    798.63104    6612827.2    6724.9433    48.731617    2.3577398     153594.5    155484.67 
   16200    809.08019    6612143.1    6724.9433    48.731617    2.3577398    153573.36    155488.26 
   16300    822.50783    6614263.1    6724.9433    48.731617    2.3577398    153619.13    155565.81 
   16400    818.89309    6616454.3    6724.9433    48.731617    2.3577398    153675.39    155613.52 
   16500    820.58677    6615176.2    6724.9433    48.731617    2.3577398    153643.14    155585.28 
   16600    794.23541    6614604.1    6724.9433    48.731617    2.3577398     153639.5    155519.27 
   16700    801.91813    6611818.4    6724.9433    48.731617    2.3577398     153569.7    155467.65 
   16800    814.01235    6610860.1    6724.9433    48.731617    2.3577398    153540.79    155467.36 
   16900    793.92842    6615287.3    6724.9433    48.731617    2.3577398    153655.53    155534.58 
   17000    813.54119    6617577.3    6724.9433    48.731617    2.3577398    153703.96    155629.42 
   17100    812.89564    6617734.3    6724.9433    48.731617    2.3577398     153709.4    155633.33 
   17200    834.07004    6612429.8    6724.9433    48.731617    2.3577398     153570.9    155544.95 
   17300    778.08023    6613337.2    6724.9433    48.731617    2.3577398    153614.37     155455.9 
   17400    800.79339    6611429.5    6724.9433    48.731617    2.3577398    153559.26    155454.55 
   17500    828.05122    6611841.4    6724.9433    48.731617    2.3577398    153559.41    155519.21 
   17600    788.29426      6618451    6724.9433    48.731617    2.3577398    153734.98    155600.68 
   17700    803.00436    6618397.6    6724.9433    48.731617    2.3577398    153728.14    155628.66 
   17800    809.76745    6615243.5    6724.9433    48.731617    2.3577398    153648.01    155564.54 
   17900    781.37356    6614088.4    6724.9433    48.731617    2.3577398    153631.96    155481.28 
   18000    750.59738    6614901.6    6724.9433    48.731617    2.3577398    153662.77    155439.25 
   18100      797.239    6613168.2    6724.9433    48.731617    2.3577398    153603.46    155490.33 
   18200    838.09463    6614020.8    6724.9433    48.731617    2.3577398    153607.77    155591.34 
   18300    839.10535      6615926    6724.9433    48.731617    2.3577398     153655.7    155641.67 
   18400    789.13205    6618280.7    6724.9433    48.731617    2.3577398    153730.91     155598.6 
   18500    781.60775    6615226.9    6724.9433    48.731617    2.3577398    153659.54    155509.43 
   18600    787.10608    6611845.1    6724.9433    48.731617    2.3577398     153575.2     155438.1 
   18700    759.53425    6614850.7    6724.9433    48.731617    2.3577398    153660.49    155458.13 
   18800    791.90938    6616390.8    6724.9433    48.731617    2.3577398    153683.27    155557.53 
   18900    819.28481    6617566.9    6724.9433    48.731617    2.3577398    153701.03    155640.09 
   19000    797.89784    6618418.7    6724.9433    48.731617    2.3577398    153729.85    155618.29 
   19100    785.94284    6615497.2    6724.9433    48.731617    2.3577398     153664.8    155524.94 
   19200    784.97623    6613258.3    6724.9433    48.731617    2.3577398    153609.97    155467.83 
   19300    818.35049    6610863.2    6724.9433    48.731617    2.3577398    153538.65    155475.49 
   19400    795.54638    6614950.1    6724.9433    48.731617    2.3577398    153647.21    155530.08 
   19500    834.61257    6614235.1    6724.9433    48.731617    2.3577398    153613.91    155589.24 
   19600    791.17781    6617933.7    6724.9433    48.731617    2.3577398    153722.55    155595.08 
   19700    803.44372    6615363.7    6724.9433    48.731617    2.3577398    153654.21    155555.77 
   19800    794.15856    6614067.2    6724.9433    48.731617    2.3577398    153626.01     155505.6 
   19900    800.57929    6612982.2    6724.9433    48.731617    2.3577398    153597.37    155492.15 
   20000    774.77751    6615886.4    6724.9433    48.731617    2.3577398    153678.79     155512.5 
   20100    787.34747    6616573.2    6724.9433    48.731617    2.3577398    153689.52    155552.99 
   20200    817.51702    6615409.2    6724.9433    48.731617    2.3577398    153649.68    155584.55 
   20300    834.00231    6613571.7    6724.9433    48.731617    2.3577398    153597.65    155571.53 
   20400     810.6131    6614172.3    6724.9433    48.731617    2.3577398    153621.31    155539.84 
   20500    790.12265    6614709.2    6724.9433    48.731617    2.3577398    153643.61    155513.64 
   20600    812.92924    6611998.5    6724.9433    48.731617    2.3577398    153569.23    155493.24 
   20700    786.28705    6614903.8    6724.9433    48.731617    2.3577398    153649.87    155510.83 
   20800    811.28531    6614979.7    6724.9433    48.731617    2.3577398    153642.78     155562.9 
   20900    793.31621      6617330    6724.9433    48.731617    2.3577398    153705.36    155582.95 
   21000    811.77406    6615434.9    6724.9433    48.731617    2.3577398    153652.71    155573.99 
   21100    785.17862      6615816    6724.9433    48.731617    2.3577398    153673.26     155531.6 
   21200    824.35727    6611577.5    6724.9433    48.731617    2.3577398    153553.43    155504.49 
   21300    793.48846    6613504.6    6724.9433    48.731617    2.3577398     153613.7     155491.7 
   21400    778.21919    6615523.3    6724.9433    48.731617    2.3577398    153667.94    155509.81 
   21500    804.20431    6616019.5    6724.9433    48.731617    2.3577398    153669.03    155572.39 
   21600    814.93818    6616238.3    6724.9433    48.731617    2.3577398    153670.38    155599.14 
   21700    822.11971    6615036.2    6724.9433    48.731617    2.3577398    153638.25    155584.01 
   21800    788.16212    6614904.9    6724.9433    48.731617    2.3577398    153649.73    155515.13 
   21900    778.79444    6613550.9    6724.9433    48.731617    2.3577398    153619.61    155462.84 
   22000     796.4347    6612485.6    6724.9433    48.731617    2.3577398    153586.99    155471.96 
   22100      793.874    6615251.3    6724.9433    48.731617    2.3577398    153655.72    155534.63 
   22200    797.25101    6618550.9    6724.9433    48.731617    2.3577398     153733.6     155620.5 
   22300    829.36848    6616403.8    6724.9433    48.731617    2.3577398    153667.68     155630.6 
   22400    810.12654    6614410.6    6724.9433    48.731617    2.3577398    153628.73     155546.1 
   22500    786.85726    6612169.9    6724.9433    48.731617    2.3577398    153583.17    155445.48 
   22600     760.3878    6613802.3    6724.9433    48.731617    2.3577398    153631.89    155431.54 
   22700    804.39678    6613355.1    6724.9433    48.731617    2.3577398    153604.37    155508.19 
   22800    828.77745    6616026.5    6724.9433    48.731617    2.3577398    153661.38     155622.9 
   22900    818.69395    6618597.7    6724.9433    48.731617    2.3577398    153726.97    155664.62 
   23000    784.41672    6618048.3    6724.9433    48.731617    2.3577398    153727.09    155583.62 
   23100    787.83628    6612837.3    6724.9433    48.731617    2.3577398    153600.25    155464.87 
   23200    779.75203    6611104.5    6724.9433    48.731617    2.3577398    153560.29    155405.78 
   23300    789.26112    6612836.4    6724.9433    48.731617    2.3577398    153597.64    155465.63 
   23400    817.71431    6615968.8    6724.9433    48.731617    2.3577398    153662.73    155598.06 
   23500    840.97135    6617609.1    6724.9433    48.731617    2.3577398    153694.09    155684.47 
   23600    800.38346      6618642    6724.9433    48.731617    2.3577398    153735.44    155629.75 
   23700    760.93425    6615731.3    6724.9433    48.731617    2.3577398    153679.55     155480.5 
   23800    781.52073    6610639.8    6724.9433    48.731617    2.3577398    153548.78    155398.45 
   23900    784.91306    6611788.5    6724.9433    48.731617    2.3577398    153574.49     155432.2 
   24000     811.2307    6615446.4    6724.9433    48.731617    2.3577398    153652.11     155572.1 
   24100    862.39125    6616012.2    6724.9433    48.731617    2.3577398    153647.15    155688.22 
   24200    841.44529      6616529    6724.9433    48.731617    2.3577398    153667.13    155658.63 
   24300    784.27292    6615171.1    6724.9433    48.731617    2.3577398    153656.01     155512.2 
   24400    776.79038      6611088    6724.9433    48.731617    2.3577398    153559.75    155398.23 
   24500    772.16649    6611677.5    6724.9433    48.731617    2.3577398    153576.65    155404.18 
   24600    792.06607    6615159.3    6724.9433    48.731617    2.3577398    153653.98    155528.61 
   24700    838.45574    6617794.9    6724.9433    48.731617    2.3577398    153698.31    155682.74 
   24800    835.98526    6618248.2    6724.9433    48.731617    2.3577398    153712.54    155691.12 
   24900    824.55689    6613809.8    6724.9433    48.731617    2.3577398    153608.42    155559.95 
   25000    758.19404    6613009.1    6724.9433    48.731617    2.3577398    153614.65    155409.11 
   25100    767.29549    6610997.7    6724.9433    48.731617    2.3577398    153562.91    155378.92 
   25200    756.96652    6616562.7    6724.9433    48.731617    2.3577398    153700.94     155492.5 
   25300    826.41373      6617552    6724.9433    48.731617    2.3577398     153697.8    155653.73 
   25400    817.47072      6620456    6724.9433    48.731617    2.3577398    153772.58    155707.34 
   25500    807.29208    6616857.8    6724.9433    48.731617    2.3577398     153690.7    155601.36 
   25600    787.19001    6612163.9    6724.9433    48.731617    2.3577398    153582.83    155445.92 
   25700    771.56145    6610471.5    6724.9433    48.731617    2.3577398    153548.37    155374.48 
   25800     771.9877    6613597.2    6724.9433    48.731617    2.3577398    153622.68    155449.79 
   25900    796.14453    6618339.3    6724.9433    48.731617    2.3577398    153730.12    155614.41 
   26000    836.61912    6619117.1    6724.9433    48.731617    2.3577398     153732.6    155712.68 
   26100    822.29351    6617400.2    6724.9433    48.731617    2.3577398    153696.58    155642.75 
   26200    785.21725    6613383.8    6724.9433    48.731617    2.3577398    153613.06    155471.48 
   26300    762.95036    6611125.2    6724.9433    48.731617    2.3577398    153565.28    155371.01 
   26400    789.13994    6610848.5    6724.9433    48.731617    2.3577398     153550.2     155417.9 
   26500    846.36848    6612615.1    6724.9433    48.731617    2.3577398       153571    155574.15 
   26600    833.23739    6618658.2    6724.9433    48.731617    2.3577398     153721.8    155693.88 
   26700    829.82238    6618149.4    6724.9433    48.731617    2.3577398    153711.45    155675.44 
   26800    820.61797    6612660.1    6724.9433    48.731617    2.3577398    153582.66    155524.86 
   26900    775.87868    6611278.5    6724.9433    48.731617    2.3577398    153565.95    155402.27 
   27000    739.92763      6613908    6724.9433    48.731617    2.3577398    153642.99    155394.22 
   27100    808.80665    6613420.7    6724.9433    48.731617    2.3577398     153604.8    155519.06 
   27200    840.68914    6616790.1    6724.9433    48.731617    2.3577398    153673.91    155663.62 
   27300    850.23138    6616938.2    6724.9433    48.731617    2.3577398    153675.48    155687.78 
   27400     789.8669    6617180.8    6724.9433    48.731617    2.3577398    153704.22    155573.65 
   27500    782.35161    6611628.3    6724.9433    48.731617    2.3577398    153571.24    155422.89 
   27600     775.5321    6610481.3    6724.9433    48.731617    2.3577398    153546.29    155381.79 
   27700    759.53185    6615776.2    6724.9433    48.731617    2.3577398    153681.33    155478.96 
   27800    833.52301    6616400.3    6724.9433    48.731617    2.3577398    153667.43    155640.18 
   27900    829.40501    6618897.1    6724.9433    48.731617    2.3577398    153729.82    155692.82 
   28000    799.60539    6617740.1    6724.9433    48.731617    2.3577398    153714.09    155606.57 
   28100    759.86066    6614966.6    6724.9433    48.731617    2.3577398    153661.78    155460.19 
   28200    756.71024    6612271.8    6724.9433    48.731617    2.3577398    153596.61    155387.57 
   28300    769.71548    6613382.2    6724.9433    48.731617    2.3577398    153619.02    155440.75 
   28400    838.92356    6613927.5    6724.9433    48.731617    2.3577398    153605.46    155590.99 
   28500    834.89786    6618471.1    6724.9433    48.731617    2.3577398    153717.98    155693.99 
   28600    825.01781    6617959.8    6724.9433    48.731617    2.3577398    153709.63    155662.25 
   28700     779.2097      6615602    6724.9433    48.731617    2.3577398    153668.94    155513.14 
   28800    762.43768    6612113.4    6724.9433    48.731617    2.3577398    153591.53    155396.03 
   28900    784.25872    6610748.7    6724.9433    48.731617    2.3577398    153549.53    155405.69 
   29000    806.14991    6614166.8    6724.9433    48.731617    2.3577398    153623.75    155531.72 
   29100    834.59522    6617162.9    6724.9433    48.731617    2.3577398     153685.6    155660.88 
   29200    820.23494    6618887.1    6724.9433    48.731617    2.3577398    153732.09     155673.4 
   29300    814.44664    6615108.1    6724.9433    48.731617    2.3577398    153642.42    155570.02 
   29400    777.02531    6612418.9    6724.9433    48.731617    2.3577398    153593.15    155432.18 
   29500    778.18856    6610776.9    6724.9433    48.731617    2.3577398    153552.73    155394.52 
   29600    814.33619    6611556.8    6724.9433    48.731617    2.3577398    153557.23    155484.57 
   29700    792.08725    6618674.6    6724.9433    48.731617    2.3577398    153738.35    155613.03 
   29800    849.51165    6616985.8    6724.9433    48.731617    2.3577398    153676.26    155686.85 
   29900    798.55131    6618352.9    6724.9433    48.731617    2.3577398     153728.5    155618.48 
   30000    806.52815    6612425.3    6724.9433    48.731617    2.3577398    153581.51    155490.37 
   30100    781.37991      6611152    6724.9433    48.731617    2.3577398    153559.84    155409.19 
   30200    765.55878    6613728.5    6724.9433    48.731617    2.3577398    153629.66    155441.55 
   30300    781.22647      6617151    6724.9433    48.731617    2.3577398    153706.89    155555.87 
   30400     831.3623    6617044.9    6724.9433    48.731617    2.3577398    153683.02    155650.66 
   30500    763.87991    6622496.1    6724.9433    48.731617    2.3577398    153842.48    155650.41 
   30600    793.95616      6616047    6724.9433    48.731617    2.3577398    153672.97    155552.07 
   30700    762.47241    6613587.5    6724.9433    48.731617    2.3577398       153627    155431.59 
   30800    767.61112    6612353.6    6724.9433    48.731617    2.3577398     153595.7    155412.45 
   30900    781.98779      6614698    6724.9433    48.731617    2.3577398    153646.25    155497.03 
   31000    803.51315    6617536.4    6724.9433    48.731617    2.3577398    153707.33    155609.06 
   31100     825.6947    6618418.3    6724.9433    48.731617    2.3577398    153719.68     155673.9 
   31200    799.78866    6618092.1    6724.9433    48.731617    2.3577398    153721.61    155614.52 
   31300    796.59633      6613051    6724.9433    48.731617    2.3577398       153601    155486.36 
   31400    779.44157    6610966.5    6724.9433    48.731617    2.3577398    153557.31    155402.06 
   31500    790.64917    6611096.3    6724.9433    48.731617    2.3577398     153555.7    155426.98 
   31600    775.32269    6617820.1    6724.9433    48.731617    2.3577398    153725.26    155560.26 
   31700    842.22973    6617543.2    6724.9433    48.731617    2.3577398       153692    155685.35 
   31800    847.55315    6616847.7    6724.9433    48.731617    2.3577398    153673.37    155679.33 
   31900     781.8732    6616188.5    6724.9433    48.731617    2.3577398    153681.86    155532.36 
   32000    770.10787    6611924.1    6724.9433    48.731617    2.3577398    153583.47    155406.14 
   32100    767.12288    6611566.8    6724.9433    48.731617    2.3577398     153577.2     155392.8 
   32200    803.37569      6612744    6724.9433    48.731617    2.3577398    153590.79    155492.19 
   32300    824.88316    6617632.3    6724.9433    48.731617    2.3577398    153700.98    155653.28 
   32400    853.81218    6617926.6    6724.9433    48.731617    2.3577398    153696.33     155717.1 
   32500    839.98025    6614977.6    6724.9433    48.731617    2.3577398    153629.36     155617.4 
   32600    767.80618    6613597.3    6724.9433    48.731617    2.3577398     153625.1    155442.31 
   32700    779.55301    6609081.2    6724.9433    48.731617    2.3577398    153511.41    155356.43 
   32800    787.13428    6611348.1    6724.9433    48.731617    2.3577398    153562.92    155425.88 
   32900     819.9979    6616004.3    6724.9433    48.731617    2.3577398     153663.1    155603.84 
   33000    820.73695    6621117.7    6724.9433    48.731617    2.3577398    153786.55    155729.04 
   33100    808.43302    6619996.1    6724.9433    48.731617    2.3577398    153764.46    155677.83 
   33200    795.34343    6613780.5    6724.9433    48.731617    2.3577398    153619.19    155501.58 
   33300    766.57758    6610431.3    6724.9433    48.731617    2.3577398    153548.59     155362.9 
   33400    747.81734    6612204.6    6724.9433    48.731617    2.3577398    153598.93    155368.83 
   33500    765.81192    6617297.9    6724.9433    48.731617    2.3577398    153715.85    155528.34 
   33600    825.85153    6619821.7    6724.9433    48.731617    2.3577398    153753.35    155707.95 
   33700    805.58671    6621966.3    6724.9433    48.731617    2.3577398     153814.2    155720.84 
   33800    823.68767    6614076.1    6724.9433    48.731617    2.3577398    153614.85    155564.32 
   33900    764.50144      6611475    6724.9433    48.731617    2.3577398    153575.68    155385.07 
   34000    767.37027    6609942.4    6724.9433    48.731617    2.3577398    153537.16    155353.35 
   34100    767.81122    6615336.5    6724.9433    48.731617    2.3577398    153667.13    155484.36 
   34200    818.25957    6618969.9    6724.9433    48.731617    2.3577398    153735.72    155672.35 
   34300     867.7688    6617484.3    6724.9433    48.731617    2.3577398    153679.94    155733.74 
   34400    822.64318    6615548.2    6724.9433    48.731617    2.3577398    153651.28    155598.28 
   34500    768.94858    6612613.7    6724.9433    48.731617    2.3577398    153601.16    155421.08 
   34600    776.57109    6609060.4    6724.9433    48.731617    2.3577398    153510.82    155348.78 
   34700    775.92609    6613087.7    6724.9433    48.731617    2.3577398    153610.06     155446.5 
   34800    842.60406    6615619.1    6724.9433    48.731617    2.3577398    153644.98    155639.23 
   34900      847.851    6619012.8    6724.9433    48.731617    2.3577398    153725.17    155731.83 
   35000    785.83159      6620334    6724.9433    48.731617    2.3577398    153781.35    155641.22 
   35100    767.44378    6614343.3    6724.9433    48.731617    2.3577398    153642.61    155458.97 
   35200    760.69693      6610528    6724.9433    48.731617    2.3577398    153554.18    155354.57 
   35300    744.72996      6614359    6724.9433    48.731617    2.3577398     153651.7     155414.3 
   35400    803.38058    6616467.2    6724.9433    48.731617    2.3577398    153681.65    155583.07 
   35500    861.77984    6617616.6    6724.9433    48.731617    2.3577398    153685.62    155725.25 
   35600    840.01316    6617823.5    6724.9433    48.731617    2.3577398    153699.54    155687.65 
   35700    811.05367      6612569    6724.9433    48.731617    2.3577398     153582.9    155502.48 
   35800    773.44075    6609749.1    6724.9433    48.731617    2.3577398     153528.3    155358.85 
   35900    743.49903    6612722.3    6724.9433    48.731617    2.3577398    153613.74    155373.43 
   36000    793.04303    6615567.8    6724.9433    48.731617    2.3577398    153663.36     155540.3 
   36100    866.87887    6616499.2    6724.9433    48.731617    2.3577398    153656.94    155708.64 
   36200    811.98988      6621309    6724.9433    48.731617    2.3577398    153794.67    155716.45 
   36300    799.74895    6615803.4    6724.9433    48.731617    2.3577398    153665.69    155558.51 
   36400    766.84231    6611220.4    6724.9433    48.731617    2.3577398    153568.41    155383.34 
   36500    789.15037    6608384.6    6724.9433    48.731617    2.3577398    153490.51    155358.25 
   36600    760.71798    6616025.2    6724.9433    48.731617    2.3577398    153687.38    155487.81 
   36700    841.80975      6616778    6724.9433    48.731617    2.3577398    153673.02    155665.38 
   36800    846.05071    6618870.1    6724.9433    48.731617    2.3577398    153722.67    155725.07 
   36900    821.23238    6616072.4    6724.9433    48.731617    2.3577398    153664.34    155608.01 
   37000    769.10216    6613013.8    6724.9433    48.731617    2.3577398    153610.22     155430.5 
   37100    787.58106    6608401.7    6724.9433    48.731617    2.3577398    153491.46    155355.48 
   37200    748.49191    6615088.8    6724.9433    48.731617    2.3577398     153668.2     155439.7 
   37300    839.46233    6614879.4    6724.9433    48.731617    2.3577398    153629.11    155615.92 
   37400    853.44683    6618317.7    6724.9433    48.731617    2.3577398    153705.47    155725.38 
   37500    794.59522    6620320.2    6724.9433    48.731617    2.3577398    153777.64    155658.25 
   37600    780.25231    6614002.8    6724.9433    48.731617    2.3577398    153630.85    155477.52 
   37700    752.29952      6611503    6724.9433    48.731617    2.3577398    153579.05    155359.57 
   37800    772.59664    6611768.6    6724.9433    48.731617    2.3577398    153577.84     155406.4 
   37900    835.91389      6613562    6724.9433    48.731617    2.3577398    153598.24    155576.65 
   38000    818.10824    6620310.5    6724.9433    48.731617    2.3577398    153768.74    155705.01 
   38100    832.92203    6617942.5    6724.9433    48.731617    2.3577398    153706.16    155677.49 
   38200    822.61947    6612509.2    6724.9433    48.731617    2.3577398    153576.98    155523.93 
   38300    752.39342      6612863    6724.9433    48.731617    2.3577398     153614.2    155394.94 
   38400     757.3832    6612385.2    6724.9433    48.731617    2.3577398    153598.43    155390.98 
   38500    794.98809    6614194.6    6724.9433    48.731617    2.3577398    153630.17    155511.72 
   38600    818.97543    6618252.3    6724.9433    48.731617    2.3577398    153718.62    155656.94 
   38700    855.60348    6617060.6    6724.9433    48.731617    2.3577398    153673.61    155698.62 
   38800    832.15549      6614414    6724.9433    48.731617    2.3577398    153620.38    155589.89 
   38900    789.09103    6612012.1    6724.9433    48.731617    2.3577398    153578.78    155446.37 
   39000    767.82416    6611384.7    6724.9433    48.731617    2.3577398    153572.71    155389.97 
   39100    760.80328    6614720.4    6724.9433    48.731617    2.3577398    153655.13    155455.77 
   39200    814.30208    6616287.9    6724.9433    48.731617    2.3577398    153673.35    155600.61 
   39300    840.71587      6617957    6724.9433    48.731617    2.3577398    153701.58    155691.36 
   39400    829.55196    6616708.1    6724.9433    48.731617    2.3577398    153676.07    155639.42 
   39500    771.01138    6615504.8    6724.9433    48.731617    2.3577398    153671.29    155496.09 
   39600    773.06469    6611588.7    6724.9433    48.731617    2.3577398    153574.07    155403.73 
   39700    761.92861    6613525.4    6724.9433    48.731617    2.3577398    153626.96    155430.26 
   39800    820.04682      6613795    6724.9433    48.731617    2.3577398    153608.31    155549.16 
   39900    821.96471    6617930.6    6724.9433    48.731617    2.3577398    153710.23    155655.63 
   40000    818.45308    6618049.7    6724.9433    48.731617    2.3577398    153713.85    155650.94 
   40100    798.03112    6615746.7    6724.9433    48.731617    2.3577398    153665.71    155554.46 
   40200    796.46924    6611455.7    6724.9433    48.731617    2.3577398    153563.08    155448.13 
   40300    789.28153      6610710    6724.9433    48.731617    2.3577398    153546.39    155414.43 
   40400    814.94073      6612228    6724.9433    48.731617    2.3577398    153572.55    155501.32 
   40500    807.27637    6617732.4    6724.9433    48.731617    2.3577398    153711.12    155621.75 
   40600    846.58064    6616494.1    6724.9433    48.731617    2.3577398    153665.58    155669.24 
   40700    800.44696    6617386.8    6724.9433    48.731617    2.3577398    153703.56    155598.03 
   40800    775.65115    6614221.5    6724.9433    48.731617    2.3577398    153636.75    155472.53 
   40900    787.48516      6610843    6724.9433    48.731617    2.3577398    153549.95    155413.74 
   41000    799.21932    6611497.8    6724.9433    48.731617    2.3577398    153562.62    155454.18 
   41100    798.98249    6616724.6    6724.9433    48.731617    2.3577398    153688.95    155579.95 
   41200    832.25337    6617541.3    6724.9433    48.731617    2.3577398    153694.97    155664.71 
   41300    830.35387      6616270    6724.9433    48.731617    2.3577398    153665.98    155631.23 
   41400     803.4718    6613959.1    6724.9433    48.731617    2.3577398    153619.78    155521.41 
   41500    771.62778    6612683.6    6724.9433    48.731617    2.3577398    153601.61    155427.87 
   41600    787.50374    6611535.2    6724.9433    48.731617    2.3577398    153567.44    155431.28 
   41700    806.32652    6613900.4    6724.9433    48.731617    2.3577398    153618.36    155526.74 
   41800    820.39762    6617109.3    6724.9433    48.731617    2.3577398     153689.7    155631.39 
   41900    794.82336    6620138.7    6724.9433    48.731617    2.3577398    153773.44     155654.6 
   42000    824.52758    6614254.1    6724.9433    48.731617    2.3577398    153618.81    155570.27 
   42100    763.29782    6614345.9    6724.9433    48.731617    2.3577398    153645.09    155451.63 
   42200    793.11878    6610745.8    6724.9433    48.731617    2.3577398    153545.66    155422.79 
   42300    786.63681    6613788.1    6724.9433    48.731617    2.3577398    153623.38    155485.17 
   42400     804.3837    6617199.7    6724.9433    48.731617    2.3577398    153699.98    155603.77 
   42500    831.42444    6617594.3    6724.9433    48.731617    2.3577398    153697.73    155665.51 
   42600    829.85988    6615565.9    6724.9433    48.731617    2.3577398    153649.66    155613.74 
   42700    771.36178    6615440.3    6724.9433    48.731617    2.3577398    153667.78    155493.41 
   42800    751.49635    6613679.2    6724.9433    48.731617    2.3577398    153632.85    155411.46 
   42900    762.04562    6614237.7    6724.9433    48.731617    2.3577398    153642.85    155446.43 
   43000    777.61704    6617278.1    6724.9433    48.731617    2.3577398     153711.1    155551.53 
   43100    834.41834      6616828    6724.9433    48.731617    2.3577398    153677.64    155652.51 
   43200    820.53942    6617639.5    6724.9433    48.731617    2.3577398    153702.91    155644.93 
   43300    797.46853    6615566.8    6724.9433    48.731617    2.3577398    153661.56    155548.98 
   43400    794.83356    6611652.9    6724.9433    48.731617    2.3577398    153566.99    155448.17 
   43500    794.41709    6610590.9    6724.9433    48.731617    2.3577398    153542.27    155422.46 
   43600    783.02597    6614554.4    6724.9433    48.731617    2.3577398    153643.13    155496.37 
   43700    788.63415    6618847.2    6724.9433    48.731617    2.3577398    153744.72    155611.23 
   43800    868.07254    6614290.3    6724.9433    48.731617    2.3577398    153602.17     155656.7 
   43900    818.22836    6615887.9    6724.9433    48.731617    2.3577398    153660.05    155596.61 
   44000    790.31065    6613292.4    6724.9433    48.731617    2.3577398    153608.69    155479.17 
   44100    782.24988    6611744.8    6724.9433    48.731617    2.3577398    153575.36    155426.76 
   44200    777.69935    6613996.6    6724.9433    48.731617    2.3577398    153631.39    155472.02 
   44300    814.58041    6615338.6    6724.9433    48.731617    2.3577398    153648.53    155576.45 
   44400    837.91712    6616153.7    6724.9433    48.731617    2.3577398    153660.32    155643.47 
   44500    810.20807    6616946.8    6724.9433    48.731617    2.3577398    153689.75    155607.32 
   44600    793.95653    6614509.1    6724.9433    48.731617    2.3577398    153637.17    155516.28 
   44700    785.83623    6612284.5    6724.9433    48.731617    2.3577398    153586.73    155446.62 
   44800    777.65223    6613181.7    6724.9433    48.731617    2.3577398    153610.58     155451.1 
   44900    779.13722    6616782.2    6724.9433    48.731617    2.3577398    153698.78    155542.81 
   45000    802.19427    6618545.6    6724.9433    48.731617    2.3577398    153732.74    155631.35 
   45100     826.6836    6616702.4    6724.9433    48.731617    2.3577398    153677.97    155634.53 
   45200     795.7283      6615675    6724.9433    48.731617    2.3577398    153662.62    155545.92 
   45300    759.37121    6614969.4    6724.9433    48.731617    2.3577398    153661.97    155459.22 
   45400    799.80601    6611005.8    6724.9433    48.731617    2.3577398    153549.21    155442.16 
   45500    781.84779      6614963    6724.9433    48.731617    2.3577398    153653.22    155503.66 
   45600     811.0233    6616372.6    6724.9433    48.731617    2.3577398    153675.67    155595.17 
   45700    807.03936    6618280.6    6724.9433    48.731617    2.3577398    153722.07    155632.14 
   45800    813.58468    6615659.5    6724.9433    48.731617    2.3577398     153657.1    155582.66 
   45900    787.85881      6614536    6724.9433    48.731617    2.3577398    153640.03     155504.7 
   46000    780.35604    6612710.2    6724.9433    48.731617    2.3577398    153599.47    155446.38 
   46100    772.15701    6614648.2    6724.9433    48.731617    2.3577398    153648.36    155475.87 
   46200    809.90937    6614726.8    6724.9433    48.731617    2.3577398    153635.78    155552.64 
   46300    838.23874    6614779.4    6724.9433    48.731617    2.3577398    153625.81    155609.72 
   46400    823.91512    6615915.1    6724.9433    48.731617    2.3577398     153659.6    155609.61 
   46500    819.00393    6613733.4    6724.9433    48.731617    2.3577398    153608.14    155546.53 
   46600    769.28018      6614666    6724.9433    48.731617    2.3577398    153650.71    155471.42 
   46700    776.44786    6613445.9    6724.9433    48.731617    2.3577398    153619.04    155456.71 
   46800    802.25975    6613713.4    6724.9433    48.731617    2.3577398    153615.04     155513.8 
   46900    811.12445    6616037.3    6724.9433    48.731617    2.3577398    153668.48    155588.22 
   47000    826.82202    6615614.5    6724.9433    48.731617    2.3577398    153650.78    155607.68 
   47100    806.76915    6615850.3    6724.9433    48.731617    2.3577398    153664.93    155574.36 
   47200    805.87386    6613076.7    6724.9433    48.731617    2.3577398    153597.32    155504.63 
   47300    777.36263    6613517.2    6724.9433    48.731617    2.3577398    153620.34    155460.18 
   47400    787.89933    6613863.4    6724.9433    48.731617    2.3577398    153623.73     155488.5 
   47500     777.0881      6617191    6724.9433    48.731617    2.3577398     153708.9    155548.09 
   47600    815.05309      6616421    6724.9433    48.731617    2.3577398    153675.53    155604.57 
   47700    829.39139    6615469.6    6724.9433    48.731617    2.3577398     153645.6    155608.57 
   47800    795.26055    6615944.7    6724.9433    48.731617    2.3577398    153670.83    155553.02 
   47900    771.08501    6614740.1    6724.9433    48.731617    2.3577398    153652.54    155477.52 
   48000    761.79528    6614623.3    6724.9433    48.731617    2.3577398    153652.59    155455.58 
   48100     764.1971    6616526.1    6724.9433    48.731617    2.3577398    153697.91    155506.58 
   48200     801.9173    6616835.3    6724.9433    48.731617    2.3577398    153690.14    155588.09 
   48300    844.63062    6615202.8    6724.9433    48.731617    2.3577398    153634.21    155633.25 
   48400    809.00212    6616019.7    6724.9433    48.731617    2.3577398    153668.22    155582.94 
   48500    797.28927    6613479.7    6724.9433    48.731617    2.3577398     153609.9    155496.89 
   48600    825.63946    6609563.6    6724.9433    48.731617    2.3577398    153503.83    155457.92 
   48700     783.7953    6613805.5    6724.9433    48.731617    2.3577398       153624    155479.06 
   48800    813.38799    6614725.9    6724.9433    48.731617    2.3577398    153634.47    155559.56 
   48900    814.33916    6616961.1    6724.9433    48.731617    2.3577398    153688.91    155616.26 
   49000    800.30194    6617498.9    6724.9433    48.731617    2.3577398    153707.68    155601.81 
   49100    786.14259    6615473.9    6724.9433    48.731617    2.3577398    153664.35    155524.96 
   49200    791.54049    6612849.5    6724.9433    48.731617    2.3577398    153596.57    155469.96 
   49300    799.36671    6612297.8    6724.9433    48.731617    2.3577398    153580.52    155472.43 
   49400    802.14767    6614246.3    6724.9433    48.731617    2.3577398    153627.27    155525.77 
   49500    804.22257    6617350.3    6724.9433    48.731617    2.3577398    153702.07    155605.48 
   49600    848.40345      6614288    6724.9433    48.731617    2.3577398    153610.29    155618.26 
   49700    801.46017    6615465.3    6724.9433    48.731617    2.3577398    153658.17    155555.03 
   49800    781.55672    6613665.4    6724.9433    48.731617    2.3577398    153621.64     155471.4 
   49900    780.63802    6612772.4    6724.9433    48.731617    2.3577398    153599.47    155447.06 
   50000    812.07226    6612671.8    6724.9433    48.731617    2.3577398    153585.88    155507.86 
   50100    800.02512      6617612    6724.9433    48.731617    2.3577398    153710.11    155603.58 
   50200    824.08292    6617529.4    6724.9433    48.731617    2.3577398    153698.68    155649.09 
   50300    790.04226    6617679.1    6724.9433    48.731617    2.3577398    153714.23    155584.07 
   50400     752.1342    6616245.4    6724.9433    48.731617    2.3577398    153694.96    155475.09 
   50500    761.40835    6613085.7    6724.9433    48.731617    2.3577398     153615.3    155417.37 
   50600    786.69344    6613342.2    6724.9433    48.731617    2.3577398    153611.62    155473.54 
   50700    806.43349    6616219.2    6724.9433    48.731617    2.3577398    153674.91    155583.55 
   50800    831.99278    6617161.8    6724.9433    48.731617    2.3577398    153687.97     155657.1 
   50900    803.53993      6617747    6724.9433    48.731617    2.3577398    153711.46    155613.24 
   51000    825.24353    6611578.3    6724.9433    48.731617    2.3577398    153553.01    155506.17 
   51100    746.38929    6614709.9    6724.9433    48.731617    2.3577398    153660.77    155427.29 
   51200    748.13229    6615428.1    6724.9433    48.731617    2.3577398    153676.76    155447.41 
   51300    776.93365      6617739    6724.9433    48.731617    2.3577398    153721.99    155560.81 
   51400    819.51886    6617916.8    6724.9433    48.731617    2.3577398    153709.08    155648.68 
   51500    823.82922    6616614.5    6724.9433    48.731617    2.3577398    153675.87    155625.68 
   51600    801.54475      6614411    6724.9433    48.731617    2.3577398    153633.38    155530.45 
   51700    782.00797    6612359.4    6724.9433    48.731617    2.3577398    153589.74    155440.57 
   51800    778.73162    6612356.4    6724.9433    48.731617    2.3577398    153591.79    155434.86 
   51900    788.70055      6615770    6724.9433    48.731617    2.3577398    153671.02    155537.69 
   52000    814.15467    6618464.2    6724.9433    48.731617    2.3577398     153725.7    155652.61 
   52100    789.36489    6620394.2    6724.9433    48.731617    2.3577398    153783.41    155651.65 
   52200    779.15972    6617463.7    6724.9433    48.731617    2.3577398    153714.56    155558.65 
   52300    779.91345    6612460.3    6724.9433    48.731617    2.3577398    153593.92    155439.79 
   52400    772.39696    6611705.3    6724.9433    48.731617    2.3577398    153576.79    155404.87 
   52500    790.64972      6613836    6724.9433    48.731617    2.3577398    153622.62    155493.91 
   52600    820.70572    6616722.9    6724.9433    48.731617    2.3577398    153679.88    155622.29 
   52700    832.31969    6617692.9    6724.9433    48.731617    2.3577398    153700.09    155669.99 
   52800    805.26871    6616957.6    6724.9433    48.731617    2.3577398    153691.84    155597.72 
   52900    785.42261    6613344.7    6724.9433    48.731617    2.3577398    153613.04    155471.95 
   53000    733.43029      6614986    6724.9433    48.731617    2.3577398    153672.76    155408.62 
   53100    800.22182      6611986    6724.9433    48.731617    2.3577398     153572.9    155466.84 
   53200    814.56654    6615912.6    6724.9433    48.731617    2.3577398    153663.09    155590.97 
   53300    821.18853    6617931.5    6724.9433    48.731617    2.3577398    153710.49    155654.05 
   53400    836.94681    6615698.5    6724.9433    48.731617    2.3577398    153648.71    155629.57 
   53500    799.35255    6613862.6    6724.9433    48.731617    2.3577398    153619.08    155510.95 
   53600    793.63653    6610632.8    6724.9433    48.731617    2.3577398    153543.49    155421.84 
   53700    832.09557    6608302.4    6724.9433    48.731617    2.3577398    153472.34    155441.72 
   53800    803.71285    6614706.5    6724.9433    48.731617    2.3577398    153638.71    155540.91 
   53900     787.2757    6620557.8    6724.9433    48.731617    2.3577398    153785.86    155649.15 
   54000    866.01013    6614402.1    6724.9433    48.731617    2.3577398    153607.46     155657.1 
   54100    804.31676    6615204.3    6724.9433    48.731617    2.3577398    153650.15    155553.77 
   54200      777.857    6612883.3    6724.9433    48.731617    2.3577398    153604.77    155445.78 
   54300    777.64982    6611640.6    6724.9433    48.731617    2.3577398    153573.78    155414.29 
   54400     802.0965    6612876.8    6724.9433    48.731617    2.3577398    153593.69    155492.07 
   54500    838.69214    6615112.8    6724.9433    48.731617    2.3577398    153634.14    155619.12 
   54600    835.36945    6617644.5    6724.9433    48.731617    2.3577398    153696.34    155673.46 
   54700    788.51909    6618090.7    6724.9433    48.731617    2.3577398    153725.69    155591.93 
   54800    808.85778    6611263.1    6724.9433    48.731617    2.3577398    153552.29    155466.66 
   54900    777.85075    6611522.1    6724.9433    48.731617    2.3577398    153570.49    155411.48 
   55000     806.9174    6611506.1    6724.9433    48.731617    2.3577398     153559.9    155469.68 
   55100    827.60377    6614995.8    6724.9433    48.731617    2.3577398    153634.94    155593.69 
   55200    823.58763    6618165.9    6724.9433    48.731617    2.3577398    153714.34    155663.58 
   55300    822.33056    6616333.4    6724.9433    48.731617    2.3577398    153670.59    155616.85 
   55400    832.23873    6610761.5    6724.9433    48.731617    2.3577398    153531.42    155501.13 
   55500    789.89428    6610650.3    6724.9433    48.731617    2.3577398    153544.45    155413.94 
   55600    784.77561    6612318.9    6724.9433    48.731617    2.3577398    153588.59    155445.97 
   55700    799.26241    6615695.8    6724.9433    48.731617    2.3577398    153663.91    155555.57 
   55800    826.55507    6617644.2    6724.9433    48.731617    2.3577398     153701.1    155657.36 
   55900    813.02749    6618269.1    6724.9433    48.731617    2.3577398    153720.39    155644.63 
   56000    786.65398    6615867.4    6724.9433    48.731617    2.3577398       153674    155535.83 
   56100    778.99443    6611996.2    6724.9433    48.731617    2.3577398    153581.06    155424.76 
   56200    796.39431    6610253.9    6724.9433    48.731617    2.3577398    153533.13    155418.01 
   56300    788.42016    6615093.5    6724.9433    48.731617    2.3577398    153653.44    155519.44 
   56400    815.70058    6617936.3    6724.9433    48.731617    2.3577398    153711.79    155642.36 
   56500    824.02432    6618189.8    6724.9433    48.731617    2.3577398    153714.39    155664.66 
   56600    795.65071    6616530.4    6724.9433    48.731617    2.3577398    153685.82    155568.94 
   56700    800.24324      6611548    6724.9433    48.731617    2.3577398     153562.9    155456.88 
   56800    794.78804    6610499.1    6724.9433    48.731617    2.3577398    153539.96    155421.03 
   56900    779.82381    6614167.4    6724.9433    48.731617    2.3577398    153634.55    155480.21 
   57000    789.11609    6618378.9    6724.9433    48.731617    2.3577398    153733.27    155600.92 
   57100    806.43475    6619572.5    6724.9433    48.731617    2.3577398     153754.5    155663.14 
   57200    835.16924    6614799.5    6724.9433    48.731617    2.3577398       153628    155604.65 
   57300    790.03297    6613645.1    6724.9433    48.731617    2.3577398    153618.62    155488.44 
   57400    768.33243    6612795.9    6724.9433    48.731617    2.3577398    153605.47    155423.93 
   57500    766.11056    6614518.8    6724.9433    48.731617    2.3577398    153648.79    155461.99 
   57600    814.10062    6614996.4    6724.9433    48.731617    2.3577398     153641.2    155567.98 
   57700    837.99524    6615910.6    6724.9433    48.731617    2.3577398    153654.99    155638.32 
   57800    850.54776    6613983.5    6724.9433    48.731617    2.3577398    153602.23    155615.28 
   57900     826.2956      6612245    6724.9433    48.731617    2.3577398    153570.39    155526.03 
   58000    803.40152    6611213.3    6724.9433    48.731617    2.3577398    153552.79    155454.25 
   58100    799.56811    6611661.1    6724.9433    48.731617    2.3577398    153566.42    155458.81 
   58200    805.41538    6614282.3    6724.9433    48.731617    2.3577398    153628.36    155534.59 
   58300    812.92361    6617059.9    6724.9433    48.731617    2.3577398    153692.95    155616.95 
   58400    807.08459    6617743.7    6724.9433    48.731617    2.3577398    153709.91    155620.09 
   58500    775.46546    6617245.8    6724.9433    48.731617    2.3577398    153710.76    155546.11 
   58600    806.97578    6611565.8    6724.9433    48.731617    2.3577398    153561.78     155471.7 
   58700    774.69987    6613517.7    6724.9433    48.731617    2.3577398    153621.04    155454.57 
   58800    816.75472      6612888    6724.9433    48.731617    2.3577398    153588.26    155521.33 
   58900    810.50999      6616469    6724.9433    48.731617    2.3577398    153678.26    155596.55 
   59000    823.75336    6616013.4    6724.9433    48.731617    2.3577398    153661.95    155611.58 
   59100    806.20887    6615223.2    6724.9433    48.731617    2.3577398    153650.16    155558.26 
   59200    792.47891    6613579.3    6724.9433    48.731617    2.3577398    153614.93    155490.54 
   59300     767.0386    6614719.9    6724.9433    48.731617    2.3577398     153653.4     155468.8 
   59400    788.84137    6614855.5    6724.9433    48.731617    2.3577398    153646.55    155513.55 
   59500    778.19461    6618505.7    6724.9433    48.731617    2.3577398       153741    155582.81 
   59600    817.42891    6616653.1    6724.9433    48.731617    2.3577398    153678.74    155613.41 
   59700    794.88734    6616463.1    6724.9433    48.731617    2.3577398    153684.25    155565.56 
   59800    810.79909    6612088.8    6724.9433    48.731617    2.3577398    153571.58    155490.55 
   59900    787.08348    6613037.9    6724.9433    48.731617    2.3577398    153604.45    155467.29 
   60000    807.72083    6613012.5    6724.9433    48.731617    2.3577398    153595.48    155507.17 
   60100     816.7075    6615140.5    6724.9433    48.731617    2.3577398     153644.1    155577.05 
   60200    808.98756    6617292.9    6724.9433    48.731617    2.3577398    153699.29    155613.97 
   60300    826.85736    6614160.7    6724.9433    48.731617    2.3577398    153616.13    155573.11 
   60400    801.39094    6613172.1    6724.9433    48.731617    2.3577398    153601.67    155498.37 
   60500    766.40958    6614116.4    6724.9433    48.731617    2.3577398    153638.93    155452.84 
   60600    805.21332    6613036.2    6724.9433    48.731617    2.3577398    153596.82    155502.56 
   60700    819.34348    6614954.4    6724.9433    48.731617    2.3577398    153639.53    155578.72 
   60800    793.92536    6619016.8    6724.9433    48.731617    2.3577398    153747.11    155626.15 
   60900    808.04991    6616346.3    6724.9433    48.731617    2.3577398    153677.13    155589.59 
   61000     779.7839    6614968.5    6724.9433    48.731617    2.3577398     153654.9    155500.47 
   61100    805.89808    6610618.1    6724.9433    48.731617    2.3577398     153538.9    155446.27 
   61200    786.49647    6613380.2    6724.9433    48.731617    2.3577398    153612.26    155473.71 
   61300    827.58593    6613658.2    6724.9433    48.731617    2.3577398    153603.49    155562.19 
   61400    801.98647    6618294.4    6724.9433    48.731617    2.3577398    153725.05    155623.16 
   61500    829.58249    6615211.9    6724.9433    48.731617    2.3577398    153639.92    155603.34 
   61600    788.52196    6615503.9    6724.9433    48.731617    2.3577398    153663.84    155530.09 
   61700    757.31191    6615565.4    6724.9433    48.731617    2.3577398    153676.86    155469.24 
   61800    818.16696    6610878.9    6724.9433    48.731617    2.3577398    153539.37    155475.78 
   61900    813.02812    6613848.9    6724.9433    48.731617    2.3577398    153613.94    155538.18 
   62000     818.4161    6615611.6    6724.9433    48.731617    2.3577398    153655.04    155592.04 
   62100    815.67818      6616316    6724.9433    48.731617    2.3577398    153671.89    155602.41 
   62200    812.77498    6614362.2    6724.9433    48.731617    2.3577398    153627.23    155550.87 
   62300    784.77917    6614207.3    6724.9433    48.731617    2.3577398    153634.12     155491.5 
   62400    802.53762    6612182.1    6724.9433    48.731617    2.3577398    153577.95    155477.37 
   62500    801.67183      6613990    6724.9433    48.731617    2.3577398    153621.84    155519.21 
   62600    829.04213    6614103.2    6724.9433    48.731617    2.3577398    153613.09    155575.24 
   62700    808.88869    6616408.7    6724.9433    48.731617    2.3577398    153678.26    155592.71 
   62800    830.95887    6613388.9    6724.9433    48.731617    2.3577398    153595.52     155562.2 
   62900    807.27797    6613160.8    6724.9433    48.731617    2.3577398    153599.71    155510.34 
   63000     793.5024    6613190.4    6724.9433    48.731617    2.3577398    153604.43    155482.47 
   63100    793.82716    6614241.9    6724.9433    48.731617    2.3577398    153629.81    155508.61 
   63200    822.60061    6613993.6    6724.9433    48.731617    2.3577398    153613.37    155560.27 
   63300    794.30225      6617247    6724.9433    48.731617    2.3577398    153704.46    155584.38 
   63400    815.79877    6615375.5    6724.9433    48.731617    2.3577398    153647.97    155578.77 
   63500    818.99637    6613159.9    6724.9433    48.731617    2.3577398    153594.48    155532.85 
   63600    805.40436    6612908.6    6724.9433    48.731617    2.3577398    153594.15    155500.35 
   63700    783.52294    6614488.9    6724.9433    48.731617    2.3577398    153639.98    155494.39 
   63800    774.62178    6616320.9    6724.9433    48.731617    2.3577398    153689.31    155522.65 
   63900     822.4202    6614246.4    6724.9433    48.731617    2.3577398    153618.91    155565.39 
   64000    848.75247    6612800.5    6724.9433    48.731617    2.3577398    153574.32    155583.11 
   64100    788.53541    6617034.9    6724.9433    48.731617    2.3577398     153699.3    155565.58 
   64200    756.93164    6617867.4    6724.9433    48.731617    2.3577398    153732.55    155524.02 
   64300     776.9163    6615179.2    6724.9433    48.731617    2.3577398    153659.81    155498.59 
   64400    808.55955    6612860.7    6724.9433    48.731617    2.3577398    153591.77    155505.44 
   64500    819.54202    6613354.5    6724.9433    48.731617    2.3577398    153598.55    155538.21 
   64600    830.68972    6613813.1    6724.9433    48.731617    2.3577398    153605.23    155571.27 
   64700    820.45105    6614647.8    6724.9433    48.731617    2.3577398    153630.82    155572.63 
   64800    820.51382    6613445.2    6724.9433    48.731617    2.3577398    153600.64     155542.6 
   64900    797.70565    6614019.5    6724.9433    48.731617    2.3577398    153624.76    155512.74 
   65000     768.0992    6616359.8    6724.9433    48.731617    2.3577398    153691.67    155509.58 
   65100    838.78466    6611438.3    6724.9433    48.731617    2.3577398    153545.28    155530.48 
   65200    810.85605    6614539.6    6724.9433    48.731617    2.3577398    153631.28    155550.38 
   65300    831.82702    6613354.4    6724.9433    48.731617    2.3577398    153595.33    155564.07 
   65400    783.09151      6617041    6724.9433    48.731617    2.3577398    153702.14    155555.54 
   65500    792.72331    6615544.4    6724.9433    48.731617    2.3577398    153663.03    155539.22 
   65600    763.51076    6617070.2    6724.9433    48.731617    2.3577398    153712.17    155519.22 
   65700    799.66876      6614385    6724.9433    48.731617    2.3577398    153631.62    155524.24 
   65800    799.06986    6615125.1    6724.9433    48.731617    2.3577398     153649.3    155540.51 
   65900    781.41152    6617173.4    6724.9433    48.731617    2.3577398    153707.38     155556.8 
   66000    800.79639      6615057    6724.9433    48.731617    2.3577398    153649.39    155544.69 
   66100    801.98394    6614422.9    6724.9433    48.731617    2.3577398    153631.31    155529.41 
   66200    799.42997    6614456.2    6724.9433    48.731617    2.3577398     153634.5    155526.57 
   66300    805.62105    6614244.8    6724.9433    48.731617    2.3577398    153626.62    155533.34 
   66400    809.04284    6614470.7    6724.9433    48.731617    2.3577398    153631.15    155545.96 
   66500    833.49684    6612694.8    6724.9433    48.731617    2.3577398    153577.72    155550.41 
   66600    805.90784    6614441.1    6724.9433    48.731617    2.3577398    153631.56    155538.95 
   66700    794.83983    6614908.9    6724.9433    48.731617    2.3577398    153645.39    155526.59 
   66800    802.56851    6614091.5    6724.9433    48.731617    2.3577398    153623.36    155522.85 
   66900    797.58733    6615064.6    6724.9433    48.731617    2.3577398    153649.08    155536.78 
   67000    783.31202    6617046.1    6724.9433    48.731617    2.3577398    153702.32    155556.23 
   67100    801.17523    6615997.6    6724.9433    48.731617    2.3577398    153670.34    155566.53 
   67200    805.65386    6614789.9    6724.9433    48.731617    2.3577398    153639.63    155546.42 
   67300    826.43672    6611770.7    6724.9433    48.731617    2.3577398    153558.26    155514.24 
   67400     801.5783    6613019.5    6724.9433    48.731617    2.3577398    153598.61    155495.75 
   67500    809.74687    6613478.3    6724.9433    48.731617    2.3577398    153604.77    155521.25 
   67600    821.58135    6614144.2    6724.9433    48.731617    2.3577398    153616.54    155561.02 
   67700    808.77989    6616281.2    6724.9433    48.731617    2.3577398    153674.06    155588.25 
   67800    809.36076    6615303.7    6724.9433    48.731617    2.3577398    153649.92    155565.48 
   67900     797.3158    6613852.6    6724.9433    48.731617    2.3577398    153620.35     155507.4 
   68000    790.57461    6612812.8    6724.9433    48.731617    2.3577398    153597.63    155468.73 
   68100    780.47485    6614678.1    6724.9433    48.731617    2.3577398    153645.98    155493.18 
   68200    825.80429    6614087.6    6724.9433    48.731617    2.3577398    153613.78    155568.26 
   68300    780.58749    6619587.8    6724.9433    48.731617    2.3577398    153766.04     155613.5 
   68400    842.76279    6614489.9    6724.9433    48.731617    2.3577398    153616.65    155611.27 
   68500    804.41018      6614472    6724.9433    48.731617    2.3577398    153630.84    155534.68 
   68600    788.10313    6612726.1    6724.9433    48.731617    2.3577398    153595.62    155460.88 
   68700    768.81001    6613830.2    6724.9433    48.731617    2.3577398    153630.55    155450.15 
   68800    801.55359    6613709.8    6724.9433    48.731617    2.3577398    153615.12    155512.21 
   68900    851.22423    6613537.9    6724.9433    48.731617    2.3577398     153591.5    155606.15 
   69000    815.11452    6617963.7    6724.9433    48.731617    2.3577398    153712.61     155641.8 
   69100    810.39961    6615913.7    6724.9433    48.731617    2.3577398    153665.15    155583.18 
   69200      782.346      6613885    6724.9433    48.731617    2.3577398    153626.84    155478.47 
   69300    769.18493    6612621.4    6724.9433    48.731617    2.3577398    153600.93    155421.41 
   69400    777.08983    6613752.5    6724.9433    48.731617    2.3577398    153624.74    155463.92 
   69500    802.68731    6617033.8    6724.9433    48.731617    2.3577398    153694.92    155594.69 
   69600    819.56972    6618816.5    6724.9433    48.731617    2.3577398    153731.92    155671.65 
   69700    825.45113    6616561.5    6724.9433    48.731617    2.3577398     153675.4    155629.05 
   69800    814.67289    6612153.9    6724.9433    48.731617    2.3577398    153570.89    155499.03 
   69900    776.96888    6611252.7    6724.9433    48.731617    2.3577398    153564.54    155403.44 
   70000    820.56571    6608828.7    6724.9433    48.731617    2.3577398    153489.17    155431.26 
   70100    768.26474    6617723.4    6724.9433    48.731617    2.3577398    153724.31    155542.61 
   70200    815.46911    6618943.1    6724.9433    48.731617    2.3577398    153735.69    155665.72 
   70300    843.76067    6617199.1    6724.9433    48.731617    2.3577398    153682.89    155679.87 
   70400     817.2493    6614560.9    6724.9433    48.731617    2.3577398    153629.47    155563.71 
   70500    803.45844    6609971.2    6724.9433    48.731617    2.3577398    153524.17    155425.77 
   70600    748.97044    6612787.7    6724.9433    48.731617    2.3577398    153612.58    155385.21 
   70700    796.98813    6613046.5    6724.9433    48.731617    2.3577398    153601.78    155488.06 
   70800    803.16771    6618647.6    6724.9433    48.731617    2.3577398    153734.21    155635.11 
   70900    832.45596    6619082.6    6724.9433    48.731617    2.3577398    153732.26    155702.48 
   71000    808.99902    6617263.4    6724.9433    48.731617    2.3577398    153698.88    155613.59 
   71100    787.51615    6612662.8    6724.9433    48.731617    2.3577398    153595.08    155458.94 
   71200    781.12522    6609914.9    6724.9433    48.731617    2.3577398    153530.04    155378.78 
   71300    775.83247    6612863.8    6724.9433    48.731617    2.3577398    153604.36    155440.57 
   71400    828.23319    6614884.2    6724.9433    48.731617    2.3577398    153632.75    155592.99 
   71500    821.99402    6619422.8    6724.9433    48.731617    2.3577398    153746.86    155692.32 
   71600    823.68462    6617558.2    6724.9433    48.731617    2.3577398     153699.7    155649.16 
   71700    807.33931    6612433.8    6724.9433    48.731617    2.3577398    153580.47    155491.25 
   71800    779.00779    6610148.4    6724.9433    48.731617    2.3577398     153536.2    155379.93 
   71900    790.96205    6610280.3    6724.9433    48.731617    2.3577398    153535.01    155407.03 
   72000    824.15092    6613801.5    6724.9433    48.731617    2.3577398       153607    155557.57 
   72100    841.23526      6618246    6724.9433    48.731617    2.3577398    153709.14    155700.14 
   72200    829.87619      6618926    6724.9433    48.731617    2.3577398    153730.12    155694.24 
   72300    793.35432    6615453.4    6724.9433    48.731617    2.3577398    153660.38    155538.06 
   72400    772.94167    6611023.4    6724.9433    48.731617    2.3577398    153560.72    155390.09 
   72500    776.72009    6609682.8    6724.9433    48.731617    2.3577398    153525.83    155364.14 
   72600     777.6452    6614461.7    6724.9433    48.731617    2.3577398    153641.81    155482.31 
   72700    841.65917    6616588.3    6724.9433    48.731617    2.3577398    153668.27    155660.28 
   72800    838.54179      6619677    6724.9433    48.731617    2.3577398    153744.32    155728.95 
   72900    794.93454    6618111.3    6724.9433    48.731617    2.3577398    153723.61    155605.03 
   73000    802.96961    6610478.8    6724.9433    48.731617    2.3577398    153535.05    155435.49 
   73100    739.66592    6612719.7    6724.9433    48.731617    2.3577398    153614.65    155365.26 
   73200    792.41122      6612053    6724.9433    48.731617    2.3577398    153578.42    155453.87 
   73300    832.35838    6615785.9    6724.9433    48.731617    2.3577398    153652.92    155622.91 
   73400    856.77839    6617702.7    6724.9433    48.731617    2.3577398     153689.6    155717.39 
   73500    834.15871    6616353.8    6724.9433    48.731617    2.3577398    153664.75    155639.01 
   73600    798.68731    6612374.7    6724.9433    48.731617    2.3577398    153581.77    155472.08 
   73700    740.71804    6612701.2    6724.9433    48.731617    2.3577398    153615.14    155368.25 
   73800    776.62202    6612019.8    6724.9433    48.731617    2.3577398    153583.54    155421.62 
   73900    789.37482    6617325.6    6724.9433    48.731617    2.3577398    153707.27    155575.53 
   74000    849.62393      6617664    6724.9433    48.731617    2.3577398    153692.21    155703.07 
   74100    834.28336    6617615.5    6724.9433    48.731617    2.3577398    153697.03    155671.58 
   74200     796.5969    6614761.1    6724.9433    48.731617    2.3577398    153641.49    155526.84 
   74300    805.91749    6608866.3    6724.9433    48.731617    2.3577398    153494.54    155401.96 
   74400    778.96659    6610572.1    6724.9433    48.731617    2.3577398    153547.43    155391.06 
   74500     790.0575    6614665.2    6724.9433    48.731617    2.3577398    153641.96    155511.83 
   74600    814.86703      6618764    6724.9433    48.731617    2.3577398    153732.99    155661.58 
   74700     807.7823    6620439.5    6724.9433    48.731617    2.3577398    153775.67     155687.5 
   74800    801.35341    6616192.5    6724.9433    48.731617    2.3577398    153675.67    155572.29 
   74900    789.78757    6611610.5    6724.9433    48.731617    2.3577398    153568.97    155438.21 
   75000    775.52256    6611396.5    6724.9433    48.731617    2.3577398    153568.27    155403.75 
   75100    790.67214    6613688.2    6724.9433    48.731617    2.3577398    153617.53    155488.86 
   75200    798.74746    6618674.5    6724.9433    48.731617    2.3577398     153735.6    155626.05 
   75300    824.89179    6618137.3    6724.9433    48.731617    2.3577398     153713.9    155666.22 
   75400    810.23633    6616182.6    6724.9433    48.731617    2.3577398    153671.06    155588.69 
   75500    784.73098    6613652.3    6724.9433    48.731617    2.3577398    153618.73       155476 
   75600    786.79966    6610823.9    6724.9433    48.731617    2.3577398    153550.24    155412.41 
   75700    806.32618      6611608    6724.9433    48.731617    2.3577398    153561.69    155470.07 
[...]
  381700    797.86061    6613583.3    6724.9433    48.731617    2.3577398    153612.99    155501.34 
  381800    806.10136    6614399.3    6724.9433    48.731617    2.3577398    153628.93    155536.78 
  381900    798.13934    6618461.6    6724.9433    48.731617    2.3577398     153731.1    155620.11 
  382000    824.56202    6618725.9    6724.9433    48.731617    2.3577398    153727.15    155678.69 
  382100    813.33003      6615379    6724.9433    48.731617    2.3577398    153649.92    155574.88 
  382200    790.55054    6612807.1    6724.9433    48.731617    2.3577398    153597.56     155468.6 
  382300    794.91403    6613050.1    6724.9433    48.731617    2.3577398    153600.19    155481.56 
  382400    791.67763    6616390.2    6724.9433    48.731617    2.3577398    153682.91    155556.62 
  382500    825.02885    6617321.6    6724.9433    48.731617    2.3577398    153693.77    155646.42 
  382600     814.0141    6616598.2    6724.9433    48.731617    2.3577398    153680.38    155606.95 
  382700    758.74245    6613400.8    6724.9433    48.731617    2.3577398    153623.29    155419.05 
  382800    762.77413    6613604.9    6724.9433    48.731617    2.3577398    153627.62    155432.92 
  382900    796.58475    6615050.9    6724.9433    48.731617    2.3577398    153648.77     155534.1 
  383000    803.64175    6617131.9    6724.9433    48.731617    2.3577398     153697.9    155599.93 
  383100      815.412    6616168.6    6724.9433    48.731617    2.3577398    153669.04    155598.93 
  383200     762.7278      6615797    6724.9433    48.731617    2.3577398    153681.39    155486.58 
  383300    755.94793    6612712.2    6724.9433    48.731617    2.3577398    153608.43    155397.58 
  383400    772.70731    6613513.4    6724.9433    48.731617    2.3577398    153621.95    155450.77 
  383500     773.3527    6616509.4    6724.9433    48.731617    2.3577398    153693.42    155523.76 
  383600    797.71351    6615927.5    6724.9433    48.731617    2.3577398    153669.84    155557.84 
  383700    814.05856    6614735.8    6724.9433    48.731617    2.3577398    153635.06    155561.74 
  383800    795.74632    6613636.3    6724.9433    48.731617    2.3577398    153615.59    155498.94 
  383900    779.22159    6609933.3    6724.9433    48.731617    2.3577398    153531.81    155376.05 
  384000    759.96602    6612685.5    6724.9433    48.731617    2.3577398    153605.78    155404.44 
  384100    787.32533    6615365.9    6724.9433    48.731617    2.3577398    153659.45    155522.86 
  384200    769.54741    6618019.1    6724.9433    48.731617    2.3577398    153731.65    155552.99 
  384300    799.73176    6616212.2    6724.9433    48.731617    2.3577398    153675.16    155567.93 
  384400     797.4059    6615252.2    6724.9433    48.731617    2.3577398     153654.5    155541.77 
  384500    773.74727      6613192    6724.9433    48.731617    2.3577398    153613.79    155445.07 
  384600    742.43476      6613940    6724.9433    48.731617    2.3577398    153644.03     155401.2 
  384700    803.44786    6613359.2    6724.9433    48.731617    2.3577398    153605.14    155506.71 
  384800    821.54981    6615674.6    6724.9433    48.731617    2.3577398    153654.46    155598.87 
  384900    803.84414    6616485.8    6724.9433    48.731617    2.3577398    153681.37    155583.88 
  385000    818.50425    6612729.1    6724.9433    48.731617    2.3577398    153586.21    155523.42 
  385100    776.14167    6613328.1    6724.9433    48.731617    2.3577398    153615.49    155452.44 
  385200    766.73002    6612512.8    6724.9433    48.731617    2.3577398    153599.39    155414.06 
  385300    789.00233    6613643.9    6724.9433    48.731617    2.3577398    153618.27    155485.65 
  385400    814.90177      6616243    6724.9433    48.731617    2.3577398    153671.22     155599.9 
  385500     823.5743    6616355.3    6724.9433    48.731617    2.3577398    153670.95    155620.16 
  385600    792.84717    6615667.1    6724.9433    48.731617    2.3577398    153665.65    155542.13 
  385700    790.30719    6611954.6    6724.9433    48.731617    2.3577398    153575.84    155446.31 
  385800    774.37629    6613219.7    6724.9433    48.731617    2.3577398    153613.34     155446.1 
  385900    793.62213    6613829.8    6724.9433    48.731617    2.3577398    153621.64    155499.96 
  386000    766.89523    6616913.6    6724.9433    48.731617    2.3577398    153706.58    155521.64 
  386100    814.34691    6614468.6    6724.9433    48.731617    2.3577398    153629.07    155556.43 
  386200     824.2886    6615087.1    6724.9433    48.731617    2.3577398    153639.35    155590.24 
  386300     807.2646    6615810.3    6724.9433    48.731617    2.3577398    153662.27    155572.87 
  386400    768.86595    6614773.9    6724.9433    48.731617    2.3577398    153652.79    155472.51 
  386500    779.36744    6611519.9    6724.9433    48.731617    2.3577398    153570.53     155415.1 
  386600    786.66126    6613994.4    6724.9433    48.731617    2.3577398    153627.51    155489.35 
  386700    797.56599    6617313.6    6724.9433    48.731617    2.3577398    153703.32    155590.97 
  386800    794.68172    6617449.1    6724.9433    48.731617    2.3577398    153707.96    155588.78 
  386900    812.94231    6614367.5    6724.9433    48.731617    2.3577398    153626.45    155550.49 
  387000     771.1832    6615311.1    6724.9433    48.731617    2.3577398    153665.28    155490.48 
  387100    755.19877    6612957.9    6724.9433    48.731617    2.3577398    153613.73    155401.11 
  387200    741.10677    6611159.5    6724.9433    48.731617    2.3577398    153576.33    155330.35 
  387300    788.82469      6611568    6724.9433    48.731617    2.3577398    153567.89    155434.86 
  387400    804.31459    6614786.2    6724.9433    48.731617    2.3577398    153640.14    155543.76 
  387500    809.82591    6615815.5    6724.9433    48.731617    2.3577398    153661.62    155578.28 
  387600    840.44359    6613263.1    6724.9433    48.731617    2.3577398     153588.8    155577.93 
  387700     795.8766    6614119.3    6724.9433    48.731617    2.3577398    153625.61    155509.26 
  387800    768.38301    6612329.7    6724.9433    48.731617    2.3577398    153593.57    155412.15 
  387900    774.49246    6611918.5    6724.9433    48.731617    2.3577398    153581.23    155414.27 
  388000    815.32774    6615398.2    6724.9433    48.731617    2.3577398    153651.55    155581.24 
  388100    847.59004    6613828.5    6724.9433    48.731617    2.3577398    153599.22    155605.27 
  388200    790.63298    6616554.5    6724.9433    48.731617    2.3577398    153688.22    155559.46 
  388300    796.06923      6612873    6724.9433    48.731617    2.3577398    153597.34    155481.45 
  388400    762.89676      6613499    6724.9433    48.731617    2.3577398    153626.31     155431.9 
  388500    770.59176      6614856    6724.9433    48.731617    2.3577398    153655.14    155478.95 
  388600    799.57687    6618052.3    6724.9433    48.731617    2.3577398    153721.18    155613.59 
  388700    803.68738    6618329.9    6724.9433    48.731617    2.3577398    153726.79    155628.92 
  388800    809.18783    6614843.3    6724.9433    48.731617    2.3577398    153639.25     155554.4 
  388900    801.99162    6611225.5    6724.9433    48.731617    2.3577398     153554.7    155452.82 
  389000    773.43643    6613759.4    6724.9433    48.731617    2.3577398    153627.64    155458.18 
  389100    773.13619    6615759.2    6724.9433    48.731617    2.3577398    153676.98    155506.81 
  389200    801.56397    6614932.8    6724.9433    48.731617    2.3577398    153644.33    155541.44 
  389300    787.67943      6617023    6724.9433    48.731617    2.3577398    153700.87    155565.12 
  389400    832.91263    6613590.6    6724.9433    48.731617    2.3577398    153600.59     155571.9 
  389500    785.38124    6614198.6    6724.9433    48.731617    2.3577398    153630.97    155489.78 
  389600    788.26299    6611442.8    6724.9433    48.731617    2.3577398    153563.03    155428.66 
  389700    771.58527    6614663.1    6724.9433    48.731617    2.3577398    153649.34     155475.5 
  389800    800.42556    6616712.9    6724.9433    48.731617    2.3577398    153689.24    155583.66 
  389900    789.25407    6619192.1    6724.9433    48.731617    2.3577398    153752.42     155620.4 
  390000    798.32146    6616648.5    6724.9433    48.731617    2.3577398    153687.42    155576.85 
  390100    799.28985    6613715.2    6724.9433    48.731617    2.3577398    153616.34    155508.07 
  390200    803.32451    6612517.3    6724.9433    48.731617    2.3577398    153585.06    155486.34 
  390300    800.95919    6613678.8    6724.9433    48.731617    2.3577398    153614.22     155509.9 
  390400    791.75189    6616366.5    6724.9433    48.731617    2.3577398    153683.49    155557.38 
  390500    815.35066    6616144.2    6724.9433    48.731617    2.3577398    153668.56    155598.31 
  390600     786.5454    6619007.6    6724.9433    48.731617    2.3577398    153749.31    155610.87 
  390700    802.14038    6614576.2    6724.9433    48.731617    2.3577398    153636.36    155534.83 
  390800    762.30373    6613771.4    6724.9433    48.731617    2.3577398    153631.66    155435.85 
  390900    785.06354    6612339.6    6724.9433    48.731617    2.3577398    153588.45    155446.51 
  391000    790.78576    6616557.4    6724.9433    48.731617    2.3577398    153687.37    155558.97 
  391100    818.41688      6617547    6724.9433    48.731617    2.3577398     153700.8     155637.8 
  391200     805.4629    6617217.1    6724.9433    48.731617    2.3577398     153699.2    155605.54 
  391300    810.48072    6613810.9    6724.9433    48.731617    2.3577398     153611.6    155529.82 
  391400    775.07279    6614520.7    6724.9433    48.731617    2.3577398    153645.68     155480.1 
  391500    804.21768    6612369.1    6724.9433    48.731617    2.3577398    153580.36    155483.75 
  391600    810.50665    6617443.7    6724.9433    48.731617    2.3577398    153701.84    155620.11 
  391700    810.51386    6619743.7    6724.9433    48.731617    2.3577398     153757.5    155675.79 
  391800    796.78898    6617161.3    6724.9433    48.731617    2.3577398    153700.43    155586.24 
  391900    789.13025    6614486.7    6724.9433    48.731617    2.3577398    153638.43    155506.11 
  392000    798.47945    6613351.5    6724.9433    48.731617    2.3577398    153607.63    155497.44 
  392100    788.65446    6614991.3    6724.9433    48.731617    2.3577398    153651.92    155518.48 
  392200    837.16972    6614922.4    6724.9433    48.731617    2.3577398    153629.64    155611.02 
  392300    870.60983    6618137.3    6724.9433    48.731617    2.3577398    153696.88     155757.4 
  392400    835.34705    6618312.2    6724.9433    48.731617    2.3577398    153714.23     155691.3 
  392500    819.64645    6615820.1    6724.9433    48.731617    2.3577398    153658.17    155598.08 
  392600     813.4035    6613531.4    6724.9433    48.731617    2.3577398    153605.73    155530.86 
  392700    789.58173    6613491.3    6724.9433    48.731617    2.3577398    153613.73    155482.48 
  392800    796.05716    6612855.6    6724.9433    48.731617    2.3577398    153596.97    155481.05 
  392900    803.85132    6617423.1    6724.9433    48.731617    2.3577398    153703.25    155605.77 
  393000    817.77378    6619206.4    6724.9433    48.731617    2.3577398    153741.13     155676.6 
  393100    852.43838    6613224.3    6724.9433    48.731617    2.3577398    153582.25    155599.77 
  393200    828.26288    6611905.5    6724.9433    48.731617    2.3577398    153560.15    155520.45 
  393300    794.69304    6614050.6    6724.9433    48.731617    2.3577398    153625.74    155506.59 
  393400    814.59889    6613158.6    6724.9433    48.731617    2.3577398       153598    155525.96 
  393500    801.17916    6616241.9    6724.9433    48.731617    2.3577398    153676.24    155572.45 
  393600    826.78918    6619882.2    6724.9433    48.731617    2.3577398    153754.87    155711.69 
  393700    814.79992    6620458.1    6724.9433    48.731617    2.3577398    153773.77    155702.21 
  393800    797.22795    6617024.4    6724.9433    48.731617    2.3577398    153696.18    155583.03 
  393900    776.56343    6616658.7    6724.9433    48.731617    2.3577398    153694.77    155532.71 
  394000    781.60476    6615438.4    6724.9433    48.731617    2.3577398    153664.44    155514.31 
  394100    815.54239    6612468.4    6724.9433    48.731617    2.3577398    153578.99    155509.19 
  394200    771.93245      6617402    6724.9433    48.731617    2.3577398    153715.33    155542.31 
  394300    817.02328    6617661.9    6724.9433    48.731617    2.3577398    153705.46    155639.16 
  394400    859.68498    6614669.5    6724.9433    48.731617    2.3577398    153614.93     155649.6 
  394500    819.27152    6612482.5    6724.9433    48.731617    2.3577398    153578.81    155517.83 
  394600    789.14584    6612576.6    6724.9433    48.731617    2.3577398    153592.38     155460.1 
  394700    792.08322      6613613    6724.9433    48.731617    2.3577398    153617.02    155491.69 
  394800    781.26764    6617515.7    6724.9433    48.731617    2.3577398    153714.37    155563.44 
  394900    826.83037    6615636.1    6724.9433    48.731617    2.3577398    153652.79     155609.7 
  395000    822.18872    6615888.4    6724.9433    48.731617    2.3577398    153658.25    155604.18 
  395100    796.42096    6613869.2    6724.9433    48.731617    2.3577398    153621.49    155506.43 
  395200    766.45379    6613171.2    6724.9433    48.731617    2.3577398    153615.41    155429.43 
  395300    782.90681    6612849.5    6724.9433    48.731617    2.3577398    153602.35    155455.31 
  395400    810.84865    6615527.1    6724.9433    48.731617    2.3577398    153655.59    155574.68 
  395500    795.54903      6618090    6724.9433    48.731617    2.3577398    153723.17    155606.05 
  395600    803.80549      6616189    6724.9433    48.731617    2.3577398    153673.37    155575.79 
  395700    781.41401    6615550.9    6724.9433    48.731617    2.3577398    153666.96    155516.38 
  395800    778.22983    6611163.5    6724.9433    48.731617    2.3577398     153561.4    155403.28 
  395900    718.99879    6611575.8    6724.9433    48.731617    2.3577398    153594.12    155295.82 
  396000    771.44869    6611251.2    6724.9433    48.731617    2.3577398    153567.65    155393.48 
  396100    798.15396    6612975.9    6724.9433    48.731617    2.3577398    153598.46    155487.51 
  396200    792.88242    6616304.1    6724.9433    48.731617    2.3577398    153681.61    155558.17 
  396300    816.11743    6616354.4    6724.9433    48.731617    2.3577398    153673.66    155605.22 
  396400    830.47964      6613925    6724.9433    48.731617    2.3577398    153610.24    155575.79 
  396500    787.35741    6611901.3    6724.9433    48.731617    2.3577398    153575.44    155438.92 
  396600    770.47502    6611878.2    6724.9433    48.731617    2.3577398    153583.19    155406.72 
  396700    779.86362    6614313.8    6724.9433    48.731617    2.3577398    153637.49    155483.25 
  396800    782.83618    6616619.1    6724.9433    48.731617    2.3577398    153692.54    155545.32 
  396900     817.0872      6614338    6724.9433    48.731617    2.3577398    153623.57    155557.42 
  397000    794.44116    6615746.1    6724.9433    48.731617    2.3577398    153666.12    155546.37 
  397100    783.47532    6613566.5    6724.9433    48.731617    2.3577398    153619.43    155473.73 
  397200    772.43267    6610554.3    6724.9433    48.731617    2.3577398    153549.24    155377.41 
  397300    774.45609    6611560.9    6724.9433    48.731617    2.3577398    153572.68    155405.63 
  397400    837.70444    6612753.4    6724.9433    48.731617    2.3577398    153577.04    155559.69 
  397500    808.15478    6616174.9    6724.9433    48.731617    2.3577398    153671.48    155584.19 
  397600     806.3241    6615424.7    6724.9433    48.731617    2.3577398    153654.09    155562.47 
  397700    788.34729    6613804.9    6724.9433    48.731617    2.3577398    153621.42    155487.25 
  397800    781.35792    6611501.2    6724.9433    48.731617    2.3577398    153569.27    155418.56 
  397900    767.13428    6613670.8    6724.9433    48.731617    2.3577398    153626.77     155442.4 
  398000    798.38593    6617204.3    6724.9433    48.731617    2.3577398     153702.2    155591.79 
  398100     821.7836    6616585.9    6724.9433    48.731617    2.3577398     153676.2    155621.16 
  398200    801.43492    6615546.4    6724.9433    48.731617    2.3577398    153660.85    155557.65 
  398300    809.82067    6610965.3    6724.9433    48.731617    2.3577398    153544.28    155460.93 
  398400     781.8035    6611563.6    6724.9433    48.731617    2.3577398    153571.03    155421.37 
  398500    780.50746    6618041.6    6724.9433    48.731617    2.3577398    153728.77    155576.04 
  398600     818.2859    6618076.7    6724.9433    48.731617    2.3577398    153713.58    155650.27 
  398700    817.19127    6615241.4    6724.9433    48.731617    2.3577398    153646.05    155580.15 
  398800    788.03498    6613715.9    6724.9433    48.731617    2.3577398    153621.07    155486.16 
  398900    773.68129    6613375.9    6724.9433    48.731617    2.3577398    153616.72    155447.84 
  399000    771.94419    6615944.1    6724.9433    48.731617    2.3577398    153680.55    155507.56 
  399100    814.39854      6618448    6724.9433    48.731617    2.3577398    153724.23    155651.72 
  399200    819.16941    6617463.4    6724.9433    48.731617    2.3577398    153697.58    155636.36 
  399300    769.82993    6618082.5    6724.9433    48.731617    2.3577398    153732.46    155554.46 
  399400    827.37943    6611021.7    6724.9433    48.731617    2.3577398    153539.18    155497.39 
  399500    805.88737    6612570.1    6724.9433    48.731617    2.3577398    153584.99    155492.34 
  399600    816.18025    6613583.2    6724.9433    48.731617    2.3577398    153607.08    155538.78 
  399700    809.77949    6615535.7    6724.9433    48.731617    2.3577398     153656.5    155573.05 
  399800    798.60387    6615918.5    6724.9433    48.731617    2.3577398    153671.19    155561.29 
  399900    787.60409      6613641    6724.9433    48.731617    2.3577398    153619.13    155483.21 
  400000    761.83097    6614589.3    6724.9433    48.731617    2.3577398     153651.6    155454.67 
  400100    812.59631    6612563.9    6724.9433    48.731617    2.3577398    153581.67     155504.9 
Loop time of 318.847 on 1 procs for 400000 steps with 795 atoms

Performance: 27.098 ns/day, 0.886 hours/ns, 1254.522 timesteps/s
99.8% CPU use with 1 MPI tasks x no OpenMP threads

MPI task timing breakdown:
Section |  min time  |  avg time  |  max time  |%varavg| %total
---------------------------------------------------------------
Pair    | 281.4      | 281.4      | 281.4      |   0.0 | 88.26
Neigh   | 14.207     | 14.207     | 14.207     |   0.0 |  4.46
Comm    | 13.181     | 13.181     | 13.181     |   0.0 |  4.13
Output  | 1.3105     | 1.3105     | 1.3105     |   0.0 |  0.41
Modify  | 5.6973     | 5.6973     | 5.6973     |   0.0 |  1.79
Other   |            | 3.049      |            |       |  0.96

Nlocal:            795 ave         795 max         795 min
Histogram: 1 0 0 0 0 0 0 0 0 0
Nghost:           6278 ave        6278 max        6278 min
Histogram: 1 0 0 0 0 0 0 0 0 0
Neighs:          53306 ave       53306 max       53306 min
Histogram: 1 0 0 0 0 0 0 0 0 0

Total # of neighbors = 53306
Ave neighs/atom = 67.051572
Neighbor list builds = 8739
Dangerous builds = 30

write_data graphene_single_layer_LJ_795C_after_temp_800K_nv.data ### MODIFY FILE NAME ###
System init for write_data ...
  generated 0 of 0 mixed pair_coeff terms from geometric mixing rule
Total wall time: 0:05:19
