# System definition
read_data graphene_single_layer_x-45_y_45_795_C_nv.data  ### MODIFY FILE NAME ###
Reading data file ...
  orthogonal box = (-1.4464652 -1.4423034 -1.42) to (47.285152 47.149102 1.42)
  1 by 1 by 1 MPI processor grid
  reading atoms ...
  795 atoms
  reading velocities ...
  795 velocities
  read_data CPU = 0.095 seconds
pair_style lj/cut 6
pair_coeff      1 1 0.066047 3.4

# Virtual force wall to keep the cylinder shape
#region myCylinder cylinder z 0. 0. 20.3 -22.079997 505.920003 units box
#fix wall all wall/region myCylinder lj93 1.0 1.0 2.5

# Minimization
timestep 0.25
thermo 100
thermo_style custom step temp press vol lx density pe etotal
dump 2 all custom 1000 graphene_single_layer_LJ_795C_after_temp_1400K_nv.lammpstrj id type x y z ### MODIFY FILE NAME ###
min_style cg
minimize 1.0e-6 1.0e-6 100 1000
WARNING: Using 'neigh_modify every 1 delay 0 check yes' setting during minimization (../min.cpp:187)
  generated 0 of 0 mixed pair_coeff terms from geometric mixing rule
Neighbor list info ...
  update every 1 steps, delay 0 steps, check yes
  max neighbors/atom: 10000, page size: 100000
  master list distance cutoff = 6.4
  ghost atom cutoff = 6.4
  binsize = 3.2, bins = 16 16 1
  1 neighbor lists, perpetual/occasional/extra = 1 0 0
  (1) pair lj/cut, perpetual
      attributes: half, newton on
      pair build: half/bin/atomonly/newton
      stencil: half/bin/3d
      bin: standard
Per MPI rank memory allocation (min/avg/max) = 5.847 | 5.847 | 5.847 Mbytes
Step Temp Press Volume Lx Density PotEng TotEng 
       0          923 3.5764745e+08    6724.9433    48.731617    2.3577398    8739313.6    8741498.1 
     100          923     47792497    6724.9433    48.731617    2.3577398    1156645.3    1158829.8 
Loop time of 0.315382 on 1 procs for 100 steps with 795 atoms

100.0% CPU use with 1 MPI tasks x no OpenMP threads

Minimization stats:
  Stopping criterion = max iterations
  Energy initial, next-to-last, final = 
       8739313.5743934   1166159.30364263   1156645.25969717
  Force two-norm initial, final = 757147.49 41890.076
  Force max component initial, final = 127132.22 10243.229
  Final line search alpha, max atom move = 3.9224736e-06 0.040178794
  Iterations, force evaluations = 100 123

MPI task timing breakdown:
Section |  min time  |  avg time  |  max time  |%varavg| %total
---------------------------------------------------------------
Pair    | 0.2147     | 0.2147     | 0.2147     |   0.0 | 68.08
Neigh   | 0.086876   | 0.086876   | 0.086876   |   0.0 | 27.55
Comm    | 0.0079576  | 0.0079576  | 0.0079576  |   0.0 |  2.52
Output  | 7.09e-05   | 7.09e-05   | 7.09e-05   |   0.0 |  0.02
Modify  | 0          | 0          | 0          |   0.0 |  0.00
Other   |            | 0.005777   |            |       |  1.83

Nlocal:            795 ave         795 max         795 min
Histogram: 1 0 0 0 0 0 0 0 0 0
Nghost:           5526 ave        5526 max        5526 min
Histogram: 1 0 0 0 0 0 0 0 0 0
Neighs:          50620 ave       50620 max       50620 min
Histogram: 1 0 0 0 0 0 0 0 0 0

Total # of neighbors = 50620
Ave neighs/atom = 63.672956
Neighbor list builds = 37
Dangerous builds = 0
#timestep 0.25
fix 1 all nvt temp 1400.0 1400.0 $(100.0*dt) ### MODIFY INITIAL TEMP, FINAL TEMP ###
fix 1 all nvt temp 1400.0 1400.0 25 
run 400000
  generated 0 of 0 mixed pair_coeff terms from geometric mixing rule
Per MPI rank memory allocation (min/avg/max) = 4.725 | 4.725 | 4.725 Mbytes
Step Temp Press Volume Lx Density PotEng TotEng 
     100          923     47792497    6724.9433    48.731617    2.3577398    1156645.3    1158829.8 
     200    28107.321     11720452    6724.9433    48.731617    2.3577398    267024.69    333548.06 
     300    7826.8291    8609640.2    6724.9433    48.731617    2.3577398    199330.06    217854.31 
     400    3702.9445    7813938.2    6724.9433    48.731617    2.3577398       181607    190370.99 
     500    2319.9566    7468540.5    6724.9433    48.731617    2.3577398    173760.38    179251.17 
     600    1830.3964    7265097.1    6724.9433    48.731617    2.3577398    169013.64    173345.75 
     700    1375.3127    7151637.1    6724.9433    48.731617    2.3577398    166435.34    169690.38 
     800    1164.4772    7093704.4    6724.9433    48.731617    2.3577398    165110.74    167866.78 
     900    1224.9204    7055066.1    6724.9433    48.731617    2.3577398    164150.76    167049.86 
    1000    1366.6128    7033099.1    6724.9433    48.731617    2.3577398    163563.11    166797.56 
    1100    1541.9582    7005936.2    6724.9433    48.731617    2.3577398    162835.61    166485.06 
    1200    1355.9717    6991376.3    6724.9433    48.731617    2.3577398    162556.32    165765.59 
    1300    1320.5806    6968439.5    6724.9433    48.731617    2.3577398     162011.9     165137.4 
    1400    1578.6603    6925886.2    6724.9433    48.731617    2.3577398    160880.23    164616.54 
    1500    1314.6394    6908861.6    6724.9433    48.731617    2.3577398    160571.25    163682.69 
    1600    1540.4959      6856433    6724.9433    48.731617    2.3577398    159212.05    162858.04 
    1700    1465.0507    6796500.8    6724.9433    48.731617    2.3577398    157790.22    161257.65 
    1800    1263.3608    6745976.4    6724.9433    48.731617    2.3577398     156641.5    159631.57 
    1900     1172.595    6718985.7    6724.9433    48.731617    2.3577398    156024.44    158799.69 
    2000    1361.5016    6704693.9    6724.9433    48.731617    2.3577398    155601.31    158823.67 
    2100    1526.1388    6702922.4    6724.9433    48.731617    2.3577398    155495.34    159107.35 
    2200    1428.7699    6699415.2    6724.9433    48.731617    2.3577398    155450.33    158831.89 
    2300    1473.8107    6674443.9    6724.9433    48.731617    2.3577398     154826.3    158314.46 
    2400    1400.0568    6659235.8    6724.9433    48.731617    2.3577398    154484.43    157798.03 
    2500    1313.3328    6650723.9    6724.9433    48.731617    2.3577398     154312.9    157421.25 
    2600    1271.1388    6654750.9    6724.9433    48.731617    2.3577398       154428    157436.48 
    2700    1353.8949    6669396.4    6724.9433    48.731617    2.3577398    154750.55     157954.9 
    2800    1545.6917    6680070.4    6724.9433    48.731617    2.3577398     154932.4    158590.69 
    2900    1504.8355    6689897.2    6724.9433    48.731617    2.3577398     155188.3    158749.89 
    3000     1479.785    6677631.9    6724.9433    48.731617    2.3577398    154901.35    158403.65 
    3100    1317.4536    6665802.3    6724.9433    48.731617    2.3577398    154676.46    157794.56 
    3200    1301.6515      6651498    6724.9433    48.731617    2.3577398    154336.27    157416.97 
    3300    1258.6704    6656684.2    6724.9433    48.731617    2.3577398    154478.24    157457.21 
    3400    1400.0412    6667665.6    6724.9433    48.731617    2.3577398    154690.87    158004.43 
    3500    1493.9613    6682510.7    6724.9433    48.731617    2.3577398    155013.33    158549.18 
    3600     1521.605    6683061.7    6724.9433    48.731617    2.3577398    155017.47    158618.75 
    3700    1387.7844    6676081.7    6724.9433    48.731617    2.3577398    154896.61    158181.17 
    3800    1335.1274    6659849.8    6724.9433    48.731617    2.3577398    154526.23    157686.16 
    3900    1303.7769    6651128.6    6724.9433    48.731617    2.3577398    154326.07     157411.8 
    4000    1256.9735    6659971.6    6724.9433    48.731617    2.3577398     154557.7    157532.66 
    4100    1471.6943    6665169.5    6724.9433    48.731617    2.3577398    154601.67    158084.83 
    4200    1586.0607    6677617.4    6724.9433    48.731617    2.3577398    154857.89    158611.72 
    4300    1465.7265    6683949.1    6724.9433    48.731617    2.3577398    155061.55    158530.57 
    4400    1355.0103    6673022.4    6724.9433    48.731617    2.3577398    154837.21     158044.2 
    4500     1313.076    6660083.4    6724.9433    48.731617    2.3577398    154541.84    157649.58 
    4600    1356.5176    6651756.5    6724.9433    48.731617    2.3577398    154319.94     157530.5 
    4700    1304.7961    6660994.1    6724.9433    48.731617    2.3577398    154566.34    157654.49 
    4800    1431.3573    6669502.9    6724.9433    48.731617    2.3577398    154721.89    158109.58 
    4900    1511.6102    6681148.6    6724.9433    48.731617    2.3577398    154973.62    158551.24 
    5000    1505.2562    6679957.7    6724.9433    48.731617    2.3577398    154946.28    158508.87 
    5100    1359.3807      6672793    6724.9433    48.731617    2.3577398    154829.96    158047.29 
    5200    1357.6283    6655856.6    6724.9433    48.731617    2.3577398    154418.98    157632.17 
    5300    1318.1197      6651301    6724.9433    48.731617    2.3577398    154324.91    157444.58 
    5400    1287.9008    6659520.6    6724.9433    48.731617    2.3577398    154535.24    157583.39 
    5500    1402.5504    6673716.6    6724.9433    48.731617    2.3577398    154836.34    158155.85 
    5600    1591.7781    6680373.5    6724.9433    48.731617    2.3577398    154922.91    158690.27 
    5700    1540.1796    6679541.5    6724.9433    48.731617    2.3577398    154925.11    158570.35 
    5800      1424.83    6662386.8    6724.9433    48.731617    2.3577398    154553.24    157925.48 
    5900    1251.3303    6655812.2    6724.9433    48.731617    2.3577398    154461.57    157423.17 
    6000    1258.1589    6652791.3    6724.9433    48.731617    2.3577398    154384.19    157361.96 
    6100    1331.6861      6663160    6724.9433    48.731617    2.3577398    154608.11     157759.9 
    6200       1467.6    6679974.6    6724.9433    48.731617    2.3577398    154962.42    158435.88 
    6300    1572.3904    6687772.9    6724.9433    48.731617    2.3577398    155112.02    158833.49 
    6400    1506.2744    6674805.3    6724.9433    48.731617    2.3577398    154821.27    158386.26 
    6500    1303.1474    6658743.6    6724.9433    48.731617    2.3577398       154511    157595.24 
    6600    1242.8695    6648338.7    6724.9433    48.731617    2.3577398    154282.38    157223.95 
    6700    1280.1438    6655958.6    6724.9433    48.731617    2.3577398    154452.95    157482.74 
    6800     1447.373    6670644.3    6724.9433    48.731617    2.3577398    154744.05    158169.64 
    6900    1525.9899    6686222.8    6724.9433    48.731617    2.3577398    155091.66    158703.31 
    7000    1527.9854    6683721.6    6724.9433    48.731617    2.3577398    155030.27    158646.65 
    7100    1408.9055    6666121.8    6724.9433    48.731617    2.3577398    154649.67    157984.22 
    7200    1265.7629    6653204.2    6724.9433    48.731617    2.3577398    154390.56    157386.32 
    7300    1287.0118    6649086.7    6724.9433    48.731617    2.3577398    154282.08    157328.13 
    7400     1377.689    6662387.3    6724.9433    48.731617    2.3577398    154569.96    157830.62 
    7500    1496.0911    6679798.5    6724.9433    48.731617    2.3577398    154945.98    158486.88 
    7600    1532.3239    6682784.7    6724.9433    48.731617    2.3577398     155004.7    158631.35 
    7700    1467.5737    6667046.7    6724.9433    48.731617    2.3577398    154648.11    158121.51 
    7800    1323.2501    6653080.7    6724.9433    48.731617    2.3577398    154366.74    157498.56 
    7900    1277.0766    6646058.5    6724.9433    48.731617    2.3577398    154214.23    157236.77 
    8000    1310.4038    6649524.3    6724.9433    48.731617    2.3577398     154284.9    157386.31 
    8100    1424.9072    6658750.2    6724.9433    48.731617    2.3577398    154464.77    157837.19 
    8200     1486.832    6667524.1    6724.9433    48.731617    2.3577398    154651.29    158170.27 
    8300    1486.3091    6665810.2    6724.9433    48.731617    2.3577398    154610.01    158127.76 
    8400    1352.7383    6661078.6    6724.9433    48.731617    2.3577398    154548.04    157749.65 
    8500    1327.0492    6648731.7    6724.9433    48.731617    2.3577398    154259.01    157399.82 
    8600    1281.5208    6651002.7    6724.9433    48.731617    2.3577398    154332.63    157365.68 
    8700    1393.7743    6653728.2    6724.9433    48.731617    2.3577398    154352.27       157651 
    8800    1386.0969    6667066.3    6724.9433    48.731617    2.3577398    154682.24    157962.81 
    8900    1456.6264    6667127.6    6724.9433    48.731617    2.3577398    154652.42    158099.91 
    9000    1412.8497    6664571.2    6724.9433    48.731617    2.3577398    154610.94    157954.82 
    9100    1373.0525    6654083.3    6724.9433    48.731617    2.3577398    154371.88    157621.57 
    9200    1288.1117    6651642.1    6724.9433    48.731617    2.3577398    154344.89    157393.54 
    9300    1354.1827    6649625.7    6724.9433    48.731617    2.3577398     154271.4    157476.43 
    9400    1419.7754    6658173.2    6724.9433    48.731617    2.3577398    154452.29    157812.56 
    9500    1492.0427    6663230.4    6724.9433    48.731617    2.3577398    154545.69    158077.01 
    9600    1498.7955    6660554.7    6724.9433    48.731617    2.3577398    154478.53    158025.82 
    9700    1471.2043      6650593    6724.9433    48.731617    2.3577398    154248.19    157730.19 
    9800    1384.4777    6639804.6    6724.9433    48.731617    2.3577398    154020.27       157297 
    9900    1311.3526    6636718.2    6724.9433    48.731617    2.3577398    153973.48    157077.14 
   10000    1341.9504    6642367.5    6724.9433    48.731617    2.3577398    154099.75    157275.83 
   10100    1448.4758    6653212.1    6724.9433    48.731617    2.3577398    154321.27    157749.47 
   10200     1483.513      6662919    6724.9433    48.731617    2.3577398    154544.57     158055.7 
   10300    1481.9061    6655162.3    6724.9433    48.731617    2.3577398    154355.54    157862.86 
   10400    1352.4482      6647223    6724.9433    48.731617    2.3577398    154212.97    157413.89 
   10500    1354.7963    6633174.9    6724.9433    48.731617    2.3577398    153871.74    157078.22 
   10600     1262.174      6638130    6724.9433    48.731617    2.3577398    154028.76    157016.03 
   10700     1413.884    6639904.3    6724.9433    48.731617    2.3577398    154010.76    157357.09 
   10800    1480.9053    6651133.8    6724.9433    48.731617    2.3577398    154258.68    157763.63 
   10900    1447.9571      6654923    6724.9433    48.731617    2.3577398    154364.98    157791.95 
   11000     1361.665    6650010.8    6724.9433    48.731617    2.3577398    154278.46     157501.2 
   11100    1315.7497    6640642.5    6724.9433    48.731617    2.3577398     154068.6    157182.67 
   11200     1398.348    6631485.5    6724.9433    48.731617    2.3577398    153813.68    157123.24 
   11300    1369.4598      6640102    6724.9433    48.731617    2.3577398    154034.77    157275.96 
   11400    1406.1811    6649576.7    6724.9433    48.731617    2.3577398     154249.3    157577.39 
   11500     1451.268    6651033.5    6724.9433    48.731617    2.3577398    154267.16    157701.96 
   11600    1412.2827    6647366.6    6724.9433    48.731617    2.3577398    154193.08    157535.62 
   11700    1346.3889    6642539.5    6724.9433    48.731617    2.3577398    154103.71    157290.29 
   11800    1359.3485      6638919    6724.9433    48.731617    2.3577398    154009.64     157226.9 
   11900    1402.8988    6639552.4    6724.9433    48.731617    2.3577398    154008.39    157328.72 
   12000    1498.2573    6637374.1    6724.9433    48.731617    2.3577398    153916.65    157462.67 
   12100    1383.4076    6648906.3    6724.9433    48.731617    2.3577398    154243.05    157517.25 
   12200    1438.5618    6645711.4    6724.9433    48.731617    2.3577398    154143.19    157547.92 
   12300    1390.9246      6645797    6724.9433    48.731617    2.3577398    154161.83    157453.82 
   12400    1408.5655    6640940.7    6724.9433    48.731617    2.3577398    154038.95    157372.69 
   12500    1372.8696    6642259.1    6724.9433    48.731617    2.3577398    154085.21    157334.47 
   12600    1394.4339    6642170.4    6724.9433    48.731617    2.3577398    154073.99    157374.29 
   12700    1406.7242    6642300.2    6724.9433    48.731617    2.3577398    154072.72     157402.1 
   12800    1396.0458    6645566.8    6724.9433    48.731617    2.3577398     154156.5    157460.61 
   12900    1458.4366    6643788.3    6724.9433    48.731617    2.3577398    154089.65    157541.42 
   13000    1396.9332      6646232    6724.9433    48.731617    2.3577398    154171.71    157477.92 
   13100    1318.7262    6647047.1    6724.9433    48.731617    2.3577398    154222.23    157343.35 
   13200    1382.9871    6639670.7    6724.9433    48.731617    2.3577398    154018.84    157292.05 
   13300    1377.1776    6642881.4    6724.9433    48.731617    2.3577398    154097.65     157357.1 
   13400    1402.6435    6645223.8    6724.9433    48.731617    2.3577398    154146.48    157466.21 
   13500    1433.4282    6645763.4    6724.9433    48.731617    2.3577398    154145.46    157538.05 
   13600    1399.6918    6647948.3    6724.9433    48.731617    2.3577398    154213.98    157526.72 
   13700    1431.1998    6639767.1    6724.9433    48.731617    2.3577398    154002.33    157389.64 
   13800    1331.5254    6642469.2    6724.9433    48.731617    2.3577398    154107.17    157258.57 
   13900    1343.3552    6643797.1    6724.9433    48.731617    2.3577398    154133.47    157312.87 
   14000     1350.542    6649589.7    6724.9433    48.731617    2.3577398    154272.23    157468.64 
   14100    1423.2629    6647238.2    6724.9433    48.731617    2.3577398    154187.01    157555.54 
   14200    1418.4103    6645502.1    6724.9433    48.731617    2.3577398    154144.59    157501.63 
   14300    1452.6024    6639427.4    6724.9433    48.731617    2.3577398    153985.41    157423.38 
   14400    1365.6249    6641801.6    6724.9433    48.731617    2.3577398    154077.07    157309.18 
   14500    1425.3332    6636535.2    6724.9433    48.731617    2.3577398    153926.07    157299.49 
   14600     1409.118    6642995.7    6724.9433    48.731617    2.3577398    154086.91    157421.96 
   14700    1479.2924      6643349    6724.9433    48.731617    2.3577398    154070.59    157571.73 
   14800     1367.804    6650360.7    6724.9433    48.731617    2.3577398    154283.44    157520.71 
   14900    1380.8948    6644072.3    6724.9433    48.731617    2.3577398    154125.81    157394.06 
   15000    1353.5131    6643314.2    6724.9433    48.731617    2.3577398    154117.09    157320.54 
   15100     1403.107    6640309.5    6724.9433    48.731617    2.3577398    154025.19    157346.01 
   15200     1383.667    6644488.2    6724.9433    48.731617    2.3577398    154136.96    157411.77 
   15300    1404.0043    6645819.2    6724.9433    48.731617    2.3577398    154158.58    157481.53 
   15400    1462.5079    6642197.9    6724.9433    48.731617    2.3577398    154049.43    157510.84 
   15500    1397.2858    6644462.9    6724.9433    48.731617    2.3577398    154128.98    157436.02 
   15600    1387.7485    6641970.2    6724.9433    48.731617    2.3577398     154073.4    157357.88 
   15700    1402.3688      6640625    6724.9433    48.731617    2.3577398    154033.48    157352.55 
   15800    1360.3076    6645841.3    6724.9433    48.731617    2.3577398    154176.85    157396.37 
   15900     1399.696    6644667.3    6724.9433    48.731617    2.3577398    154133.56    157446.31 
   16000    1433.9518    6643821.4    6724.9433    48.731617    2.3577398    154098.82    157492.65 
   16100    1393.1033    6646352.8    6724.9433    48.731617    2.3577398    154175.38    157472.53 
   16200    1392.1268    6642832.2    6724.9433    48.731617    2.3577398    154091.88    157386.71 
   16300    1398.4854    6640215.6    6724.9433    48.731617    2.3577398    154025.11    157334.99 
   16400    1417.2003    6640648.4    6724.9433    48.731617    2.3577398     154029.4    157383.57 
   16500    1409.8047    6644381.6    6724.9433    48.731617    2.3577398    154122.49    157459.17 
   16600    1427.6866    6643504.4    6724.9433    48.731617    2.3577398    154094.12    157473.12 
   16700     1396.789    6645421.3    6724.9433    48.731617    2.3577398    154152.06    157457.93 
   16800    1370.7844    6645268.2    6724.9433    48.731617    2.3577398    154158.98     157403.3 
   16900    1350.4932    6645265.8    6724.9433    48.731617    2.3577398    154165.78    157362.07 
   17000    1377.2684    6643329.2    6724.9433    48.731617    2.3577398    154109.65    157369.32 
   17100    1418.8867    6642258.8    6724.9433    48.731617    2.3577398    154066.12    157424.29 
   17200    1407.1874    6645261.1    6724.9433    48.731617    2.3577398    154144.94    157475.42 
   17300    1379.8746    6647104.6    6724.9433    48.731617    2.3577398    154199.26     157465.1 
   17400     1398.289    6643426.3    6724.9433    48.731617    2.3577398    154104.58       157414 
   17500    1255.7129      6653091    6724.9433    48.731617    2.3577398    154393.93    157365.91 
   17600    1438.0053    6638848.7    6724.9433    48.731617    2.3577398    153977.37    157380.78 
   17700    1432.8853      6640925    6724.9433    48.731617    2.3577398    154028.97    157420.27 
   17800    1408.7559    6644916.3    6724.9433    48.731617    2.3577398    154135.63    157469.82 
   17900    1446.1125    6642168.2    6724.9433    48.731617    2.3577398     154056.3     157478.9 
   18000    1421.1586    6642251.8    6724.9433    48.731617    2.3577398     154064.9    157428.44 
   18100    1375.9308    6643298.5    6724.9433    48.731617    2.3577398    154109.42    157365.93 
   18200    1373.0958    6643279.3    6724.9433    48.731617    2.3577398    154110.17    157359.96 
   18300    1414.0903    6642615.8    6724.9433    48.731617    2.3577398    154076.24    157423.06 
   18400    1438.5844    6642335.6    6724.9433    48.731617    2.3577398    154060.46    157465.25 
   18500    1439.9308    6642614.2    6724.9433    48.731617    2.3577398    154067.94    157475.91 
   18600    1356.2875    6647869.6    6724.9433    48.731617    2.3577398     154227.2    157437.21 
   18700    1342.4913    6646769.3    6724.9433    48.731617    2.3577398    154207.35    157384.71 
   18800     1380.698    6642239.9    6724.9433    48.731617    2.3577398    154081.43    157349.22 
   18900    1389.8437    6642675.7    6724.9433    48.731617    2.3577398    154088.66     157378.1 
   19000     1454.548    6641094.4    6724.9433    48.731617    2.3577398    154025.46    157468.03 
   19100    1476.2713    6641192.9    6724.9433    48.731617    2.3577398    154020.26    157514.25 
   19200     1418.459    6643871.3    6724.9433    48.731617    2.3577398    154106.35    157463.51 
   19300    1425.6917    6639752.4    6724.9433    48.731617    2.3577398    154002.92     157377.2 
   19400     1433.183    6637052.4    6724.9433    48.731617    2.3577398    153934.89     157326.9 
   19500    1383.4585      6642706    6724.9433    48.731617    2.3577398    154091.97    157366.29 
   19600     1428.389    6642683.7    6724.9433    48.731617    2.3577398    154074.21    157454.87 
   19700     1427.807    6645634.2    6724.9433    48.731617    2.3577398    154144.81     157524.1 
   19800    1396.1268      6647150    6724.9433    48.731617    2.3577398    154194.31    157498.61 
   19900    1396.5574    6642851.1    6724.9433    48.731617    2.3577398    154089.57    157394.89 
   20000     1366.627    6642056.4    6724.9433    48.731617    2.3577398    154082.54    157317.02 
   20100    1420.4561    6638751.4    6724.9433    48.731617    2.3577398    153980.62    157342.51 
   20200    1361.4615    6646858.8    6724.9433    48.731617    2.3577398    154202.48    157424.74 
   20300    1461.2737    6642297.3    6724.9433    48.731617    2.3577398    154052.04    157510.53 
   20400    1407.0307    6647786.6    6724.9433    48.731617    2.3577398    154206.38    157536.49 
   20500    1426.2224    6642263.9    6724.9433    48.731617    2.3577398    154064.43    157439.96 
   20600    1347.5522    6643900.9    6724.9433    48.731617    2.3577398    154135.83    157325.16 
   20700    1375.6041    6640589.3    6724.9433    48.731617    2.3577398    154043.46    157299.19 
   20800    1384.6876    6643685.3    6724.9433    48.731617    2.3577398    154114.21    157391.44 
   20900     1409.698    6646290.3    6724.9433    48.731617    2.3577398    154167.37    157503.79 
   21000     1413.334    6647487.8    6724.9433    48.731617    2.3577398    154196.66    157541.68 
   21100    1421.1139    6644246.2    6724.9433    48.731617    2.3577398    154113.93    157477.37 
   21200    1398.9448    6641422.3    6724.9433    48.731617    2.3577398     154055.2    157366.18 
   21300    1368.9041    6640475.3    6724.9433    48.731617    2.3577398    154043.36    157283.24 
   21400    1381.6712    6641783.3    6724.9433    48.731617    2.3577398    154070.61     157340.7 
   21500     1436.044      6642731    6724.9433    48.731617    2.3577398    154071.71    157470.48 
   21600    1413.6394    6647810.3    6724.9433    48.731617    2.3577398    154204.84    157550.59 
   21700    1388.7407    6648744.4    6724.9433    48.731617    2.3577398    154237.28    157524.11 
   21800    1381.8921      6643363    6724.9433    48.731617    2.3577398    154107.89    157378.51 
   21900    1354.3893    6641886.8    6724.9433    48.731617    2.3577398    154084.76    157290.28 
   22000    1367.3517    6641787.4    6724.9433    48.731617    2.3577398     154075.6     157311.8 
   22100     1411.773    6642830.2    6724.9433    48.731617    2.3577398    154084.64    157425.97 
   22200    1410.7274    6647846.6    6724.9433    48.731617    2.3577398    154205.36    157544.21 
   22300    1461.0985    6644122.6    6724.9433    48.731617    2.3577398    154096.26    157554.34 
   22400    1479.7474    6637158.9    6724.9433    48.731617    2.3577398    153919.49    157421.71 
   22500    1401.9436    6638928.5    6724.9433    48.731617    2.3577398    153993.79    157311.86 
   22600    1401.6348    6638977.3    6724.9433    48.731617    2.3577398    153994.95    157312.29 
   22700    1397.0225    6642440.5    6724.9433    48.731617    2.3577398    154080.82    157387.24 
   22800    1456.1235    6642843.1    6724.9433    48.731617    2.3577398    154066.96    157513.26 
   22900    1447.5595    6645573.1    6724.9433    48.731617    2.3577398    154136.47     157562.5 
   23000    1421.2755    6643738.9    6724.9433    48.731617    2.3577398    154101.39    157465.22 
   23100    1379.7173    6641518.9    6724.9433    48.731617    2.3577398    154065.43    157330.89 
   23200    1389.3904    6638834.6    6724.9433    48.731617    2.3577398    153996.11    157284.47 
   23300    1384.5915    6642538.6    6724.9433    48.731617    2.3577398    154088.19    157365.19 
   23400    1428.3319    6644482.8    6724.9433    48.731617    2.3577398    154117.22    157497.75 
   23500    1399.4509    6649195.9    6724.9433    48.731617    2.3577398     154243.6    157555.77 
   23600    1390.5668    6646637.2    6724.9433    48.731617    2.3577398    154183.92    157475.06 
   23700    1400.8883    6641351.7    6724.9433    48.731617    2.3577398    154052.98    157368.55 
   23800    1319.4476    6645270.6    6724.9433    48.731617    2.3577398    154178.24    157301.06 
   23900     1401.567    6639830.8    6724.9433    48.731617    2.3577398    154015.91    157333.09 
   24000    1454.1719    6640848.2    6724.9433    48.731617    2.3577398    154018.87    157460.55 
   24100     1405.686    6647300.3    6724.9433    48.731617    2.3577398     154195.7    157522.63 
   24200    1433.6287    6644456.8    6724.9433    48.731617    2.3577398    154114.06    157507.12 
   24300    1392.9117    6644083.5    6724.9433    48.731617    2.3577398    154121.39    157418.09 
   24400    1428.5995      6637601    6724.9433    48.731617    2.3577398    153950.87    157332.03 
   24500    1357.7492    6643077.1    6724.9433    48.731617    2.3577398    154112.45    157325.92 
   24600    1429.2554    6640844.9    6724.9433    48.731617    2.3577398    154029.09     157411.8 
   24700    1403.1527    6646818.8    6724.9433    48.731617    2.3577398    154184.16    157505.09 
   24800    1419.4483    6645599.6    6724.9433    48.731617    2.3577398    154148.36    157507.85 
   24900     1416.357    6642685.8    6724.9433    48.731617    2.3577398    154079.58    157431.76 
   25000    1417.2507    6639836.4    6724.9433    48.731617    2.3577398    154008.29    157362.59 
   25100    1345.1945    6645003.9    6724.9433    48.731617    2.3577398    154161.63    157345.39 
   25200     1361.636    6645615.8    6724.9433    48.731617    2.3577398    154171.31    157393.98 
   25300    1447.1727    6641882.3    6724.9433    48.731617    2.3577398       154046    157471.12 
   25400    1444.1843    6643444.8    6724.9433    48.731617    2.3577398    154085.56     157503.6 
   25500    1392.8995    6645530.9    6724.9433    48.731617    2.3577398    154155.89    157452.56 
   25600    1383.8533    6643302.6    6724.9433    48.731617    2.3577398    154106.72    157381.97 
   25700    1389.6817      6641652    6724.9433    48.731617    2.3577398    154063.79    157352.84 
   25800    1361.0757    6645107.3    6724.9433    48.731617    2.3577398    154158.77    157380.12 
   25900     1424.098    6642660.9    6724.9433    48.731617    2.3577398    154075.01    157445.51 
   26000    1407.1603      6645488    6724.9433    48.731617    2.3577398    154150.94    157481.36 
   26100    1434.1874    6642920.2    6724.9433    48.731617    2.3577398    154077.18    157471.56 
   26200     1407.296    6642461.2    6724.9433    48.731617    2.3577398    154076.98    157407.71 
   26300    1390.8193    6642060.5    6724.9433    48.731617    2.3577398    154073.07    157364.81 
   26400    1392.5884    6642379.7    6724.9433    48.731617    2.3577398    154080.62    157376.55 
   26500    1416.0158    6643346.8    6724.9433    48.731617    2.3577398    154094.64    157446.01 
   26600    1414.3239    6644836.6    6724.9433    48.731617    2.3577398    154131.55    157478.92 
   26700    1371.9577    6647842.7    6724.9433    48.731617    2.3577398    154220.39    157467.48 
   26800    1391.6316    6644006.7    6724.9433    48.731617    2.3577398    154121.38    157415.04 
   26900    1399.5606    6640777.7    6724.9433    48.731617    2.3577398    154037.17    157349.59 
   27000    1365.4722    6643601.9    6724.9433    48.731617    2.3577398    154120.56    157352.31 
   27100    1460.3498    6639005.7    6724.9433    48.731617    2.3577398    153972.89    157429.19 
   27200    1430.4907    6643970.1    6724.9433    48.731617    2.3577398    154105.64    157491.27 
   27300     1460.064    6641586.8    6724.9433    48.731617    2.3577398    154033.16    157488.78 
   27400    1383.7306    6645204.5    6724.9433    48.731617    2.3577398    154152.99    157427.95 
   27500    1362.3907    6644127.7    6724.9433    48.731617    2.3577398    154133.93    157358.38 
   27600    1387.9847    6640700.6    6724.9433    48.731617    2.3577398    154042.15    157327.18 
   27700    1442.8026    6638917.3    6724.9433    48.731617    2.3577398    153976.69    157391.46 
   27800    1417.0719    6644380.2    6724.9433    48.731617    2.3577398    154118.15    157472.03 
   27900    1385.1018      6648438    6724.9433    48.731617    2.3577398    154229.09    157507.29 
   28000    1466.4479    6640391.8    6724.9433    48.731617    2.3577398    154002.88    157473.62 
   28100    1430.4743      6639801    6724.9433    48.731617    2.3577398    154003.32    157388.92 
   28200    1346.1784    6644389.5    6724.9433    48.731617    2.3577398    154147.46    157333.54 
   28300    1402.4207    6640342.7    6724.9433    48.731617    2.3577398    154027.91    157347.11 
   28400    1375.6941    6646163.7    6724.9433    48.731617    2.3577398    154178.49    157434.44 
   28500    1500.3001    6639569.9    6724.9433    48.731617    2.3577398    153969.64     157520.5 
   28600    1398.4485      6647034    6724.9433    48.731617    2.3577398    154190.92    157500.72 
   28700    1372.6999    6645907.6    6724.9433    48.731617    2.3577398    154171.89    157420.74 
   28800    1400.8414    6640291.2    6724.9433    48.731617    2.3577398    154025.08    157340.54 
   28900    1388.1319    6641049.3    6724.9433    48.731617    2.3577398    154049.38    157334.76 
   29000     1363.705    6645476.4    6724.9433    48.731617    2.3577398    154168.04    157395.61 
   29100    1391.9926      6647131    6724.9433    48.731617    2.3577398    154196.28     157490.8 
   29200       1485.7    6640689.7    6724.9433    48.731617    2.3577398    154003.82    157520.12 
   29300    1434.0341      6642553    6724.9433    48.731617    2.3577398    154066.63    157460.65 
   29400    1363.2935    6644593.4    6724.9433    48.731617    2.3577398    154145.03    157371.62 
   29500    1390.0351    6640423.3    6724.9433    48.731617    2.3577398    154034.81    157324.69 
   29600    1382.0135    6643402.3    6724.9433    48.731617    2.3577398    154109.96    157380.86 
   29700    1450.7375    6640732.1    6724.9433    48.731617    2.3577398    154016.77    157450.32 
   29800    1427.7343      6644641    6724.9433    48.731617    2.3577398    154121.92    157501.02 
   29900    1448.2761    6641868.7    6724.9433    48.731617    2.3577398    154047.27    157474.99 
   30000    1409.9634    6641872.1    6724.9433    48.731617    2.3577398    154060.58    157397.63 
   30100    1390.3013    6641743.9    6724.9433    48.731617    2.3577398    154065.15    157355.66 
   30200    1414.7587      6640063    6724.9433    48.731617    2.3577398    154015.82    157364.22 
   30300     1439.635    6640469.7    6724.9433    48.731617    2.3577398    154015.48    157422.75 
   30400    1439.5151    6642417.5    6724.9433    48.731617    2.3577398    154062.08    157469.07 
   30500    1409.2894    6644838.9    6724.9433    48.731617    2.3577398    154135.05     157470.5 
   30600    1401.3303    6644210.3    6724.9433    48.731617    2.3577398    154120.92    157437.54 
   30700    1344.0071    6646736.3    6724.9433    48.731617    2.3577398    154203.66    157384.61 
   30800    1395.1627    6641929.5    6724.9433    48.731617    2.3577398    154069.31    157371.33 
   30900    1438.5011    6639702.5    6724.9433    48.731617    2.3577398    153997.08    157401.67 
   31000    1378.0095    6645980.7    6724.9433    48.731617    2.3577398    154173.71    157435.14 
   31100    1409.7903    6644308.7    6724.9433    48.731617    2.3577398    154120.83    157457.47 
   31200    1366.7992    6647727.6    6724.9433    48.731617    2.3577398    154220.68    157455.57 
   31300    1457.1351    6638985.4    6724.9433    48.731617    2.3577398    153973.44    157422.13 
   31400    1414.4657      6641361    6724.9433    48.731617    2.3577398    154047.44    157395.15 
   31500    1366.7301    6644940.9    6724.9433    48.731617    2.3577398    154152.75    157387.48 
   31600    1403.7914    6642832.6    6724.9433    48.731617    2.3577398    154086.97    157409.41 
   31700    1412.1303    6643172.8    6724.9433    48.731617    2.3577398    154091.67    157433.85 
   31800    1389.0349    6645296.7    6724.9433    48.731617    2.3577398    154153.19     157440.7 
   31900    1450.2099    6640921.6    6724.9433    48.731617    2.3577398    154021.59    157453.89 
   32000    1426.5008    6641773.3    6724.9433    48.731617    2.3577398    154053.54    157429.73 
   32100    1379.9644    6644319.1    6724.9433    48.731617    2.3577398    154131.35     157397.4 
   32200    1376.6073    6644303.2    6724.9433    48.731617    2.3577398    154133.21    157391.31 
   32300    1337.7613    6647784.8    6724.9433    48.731617    2.3577398    154232.45    157398.61 
   32400    1411.7761    6643081.5    6724.9433    48.731617    2.3577398    154089.83    157431.16 
   32500    1318.0911    6651442.2    6724.9433    48.731617    2.3577398    154330.78    157450.39 
   32600    1471.4717    6638527.1    6724.9433    48.731617    2.3577398    153956.38       157439 
   32700    1441.6283    6640020.2    6724.9433    48.731617    2.3577398    154004.43    157416.42 
   32800    1431.7921    6640079.5    6724.9433    48.731617    2.3577398    154010.41    157399.12 
   32900    1409.3024    6641877.8    6724.9433    48.731617    2.3577398    154061.21     157396.7 
   33000    1383.6642      6644699    6724.9433    48.731617    2.3577398    154140.09     157414.9 
   33100    1393.5308    6645430.9    6724.9433    48.731617    2.3577398     154154.7    157452.86 
   33200    1367.6437    6647536.7    6724.9433    48.731617    2.3577398     154215.2    157452.09 
   33300    1459.9159    6638227.3    6724.9433    48.731617    2.3577398    153953.37    157408.64 
   33400    1381.1607    6643815.9    6724.9433    48.731617    2.3577398    154120.26    157389.14 
   33500    1370.8471    6644715.7    6724.9433    48.731617    2.3577398    154144.22    157388.69 
   33600    1424.4226    6641265.4    6724.9433    48.731617    2.3577398    154041.35    157412.62 
   33700     1383.125    6646466.5    6724.9433    48.731617    2.3577398    154184.08    157457.61 
   33800    1452.8561    6641287.9    6724.9433    48.731617    2.3577398    154029.59    157468.15 
   33900    1365.5876    6646004.2    6724.9433    48.731617    2.3577398    154178.73    157410.75 
   34000    1385.7597    6642786.5    6724.9433    48.731617    2.3577398    154093.45    157373.21 
   34100    1348.7801    6646255.2    6724.9433    48.731617    2.3577398    154191.51    157383.76 
   34200    1436.9013    6640629.5    6724.9433    48.731617    2.3577398    154020.86    157421.67 
   34300    1391.4807    6645792.1    6724.9433    48.731617    2.3577398    154163.36    157456.66 
   34400    1408.8332    6644932.8    6724.9433    48.731617    2.3577398    154135.54    157469.91 
   34500    1355.2405    6647376.4    6724.9433    48.731617    2.3577398    154216.26     157423.8 
   34600    1421.0154    6639957.4    6724.9433    48.731617    2.3577398    154010.82    157374.03 
   34700    1394.6376    6641643.9    6724.9433    48.731617    2.3577398    154062.92     157363.7 
   34800    1445.3446      6639945    6724.9433    48.731617    2.3577398    154001.91     157422.7 
   34900    1405.4213    6644724.7    6724.9433    48.731617    2.3577398    154133.66    157459.96 
   35000    1417.5161    6643939.8    6724.9433    48.731617    2.3577398    154109.15    157464.07 
   35100    1361.1014    6647277.3    6724.9433    48.731617    2.3577398    154211.03    157432.44 
   35200    1393.5591    6642608.9    6724.9433    48.731617    2.3577398    154084.84    157383.07 
   35300    1399.6833      6641570    6724.9433    48.731617    2.3577398    154057.73    157370.45 
   35400    1423.4953    6640896.5    6724.9433    48.731617    2.3577398    154031.72     157400.8 
   35500    1428.0813    6642999.8    6724.9433    48.731617    2.3577398    154081.66    157461.59 
   35600    1468.2039    6639893.8    6724.9433    48.731617    2.3577398    153990.36    157465.25 
   35700    1347.2849    6647964.1    6724.9433    48.731617    2.3577398    154231.55    157420.25 
   35800    1365.9161    6645694.6    6724.9433    48.731617    2.3577398     154171.9     157404.7 
   35900    1400.7375    6642402.9    6724.9433    48.731617    2.3577398    154078.11    157393.32 
   36000    1402.0002    6642554.9    6724.9433    48.731617    2.3577398    154081.05    157399.25 
   36100    1363.2175    6647047.2    6724.9433    48.731617    2.3577398     154206.6    157433.01 
   36200     1443.436    6641428.4    6724.9433    48.731617    2.3577398    154036.61    157452.88 
   36300    1394.1235    6644617.4    6724.9433    48.731617    2.3577398    154135.78    157435.34 
   36400    1437.3428    6639854.9    6724.9433    48.731617    2.3577398    154000.87    157402.72 
   36500    1417.7822    6640912.3    6724.9433    48.731617    2.3577398    154034.01    157389.56 
   36600    1416.3174    6641751.3    6724.9433    48.731617    2.3577398     154055.1    157407.18 
   36700     1383.768    6645625.1    6724.9433    48.731617    2.3577398    154162.37    157437.42 
   36800     1447.004    6641043.1    6724.9433    48.731617    2.3577398     154026.7    157451.42 
   36900    1412.3416    6642967.5    6724.9433    48.731617    2.3577398    154087.13    157429.81 
   37000    1392.0207    6643380.8    6724.9433    48.731617    2.3577398    154104.72    157399.31 
   37100    1367.0672    6645087.4    6724.9433    48.731617    2.3577398    154156.99    157392.51 
   37200    1443.0935    6640214.6    6724.9433    48.731617    2.3577398    154008.94     157424.4 
   37300    1428.6024    6642685.4    6724.9433    48.731617    2.3577398     154072.6    157453.76 
   37400    1406.1457    6644376.1    6724.9433    48.731617    2.3577398    154125.32    157453.33 
   37500    1374.2678      6645267    6724.9433    48.731617    2.3577398    154158.09    157410.66 
   37600    1332.8367    6647821.7    6724.9433    48.731617    2.3577398    154236.01    157390.52 
   37700    1435.1651    6639763.3    6724.9433    48.731617    2.3577398    154000.32    157397.01 
   37800    1380.0245    6645117.4    6724.9433    48.731617    2.3577398    154152.11     157418.3 
   37900     1399.235    6645372.6    6724.9433    48.731617    2.3577398    154150.14     157461.8 
   38000    1413.0132    6643579.5    6724.9433    48.731617    2.3577398    154101.36    157445.63 
   38100    1363.8574      6646384    6724.9433    48.731617    2.3577398    154188.79    157416.72 
   38200    1413.5472      6641640    6724.9433    48.731617    2.3577398    154056.22    157401.76 
   38300    1375.2928    6644166.3    6724.9433    48.731617    2.3577398    154130.03    157385.02 
   38400    1374.2747      6645359    6724.9433    48.731617    2.3577398    154161.22    157413.81 
   38500    1393.3804    6645509.6    6724.9433    48.731617    2.3577398    154157.07    157454.87 
   38600     1421.883    6643716.5    6724.9433    48.731617    2.3577398    154100.72    157465.98 
   38700    1404.1937    6643610.5    6724.9433    48.731617    2.3577398    154106.21    157429.61 
   38800    1401.1207    6642602.4    6724.9433    48.731617    2.3577398    154083.86    157399.99 
   38900    1416.5119    6641134.1    6724.9433    48.731617    2.3577398    154042.18    157394.73 
   39000    1355.2362      6646593    6724.9433    48.731617    2.3577398    154197.29    157404.82 
   39100    1419.6399    6643178.6    6724.9433    48.731617    2.3577398    154089.68    157449.63 
   39200    1381.6989      6646835    6724.9433    48.731617    2.3577398    154192.47    157462.63 
   39300    1361.2484    6646796.1    6724.9433    48.731617    2.3577398    154199.26    157421.01 
   39400    1373.1772    6644670.4    6724.9433    48.731617    2.3577398    154142.07    157392.06 
   39500    1424.3213    6640455.7    6724.9433    48.731617    2.3577398    154021.24    157392.27 
   39600    1381.9416    6644824.4    6724.9433    48.731617    2.3577398    154145.03    157415.76 
   39700    1400.6918    6644670.3    6724.9433    48.731617    2.3577398    154134.59    157449.69 
   39800    1384.8638    6645451.1    6724.9433    48.731617    2.3577398    154158.89    157436.54 
   39900     1417.054      6642286    6724.9433    48.731617    2.3577398    154069.19    157423.02 
   40000    1387.0855    6644283.5    6724.9433    48.731617    2.3577398    154125.65    157408.55 
   40100     1488.728    6635329.1    6724.9433    48.731617    2.3577398    153871.74    157395.21 
   40200    1375.7355    6645041.9    6724.9433    48.731617    2.3577398    154151.34    157407.38 
   40300    1420.9389    6643938.3    6724.9433    48.731617    2.3577398    154106.28     157469.3 
   40400    1503.2839    6637202.9    6724.9433    48.731617    2.3577398    153910.29    157468.21 
   40500    1416.4098    6642477.3    6724.9433    48.731617    2.3577398    154073.47    157425.78 
   40600    1369.3632    6645205.3    6724.9433    48.731617    2.3577398    154158.99    157399.94 
   40700    1436.3202    6639554.9    6724.9433    48.731617    2.3577398    153995.49    157394.92 
   40800    1413.1484    6641724.4    6724.9433    48.731617    2.3577398    154056.83    157401.41 
   40900     1398.914    6644175.8    6724.9433    48.731617    2.3577398    154123.13    157434.03 
   41000    1383.6341    6646342.6    6724.9433    48.731617    2.3577398     154180.9    157455.63 
   41100    1403.0789    6643938.3    6724.9433    48.731617    2.3577398    154114.02    157434.78 
   41200     1411.772    6642044.8    6724.9433    48.731617    2.3577398    154064.26    157405.59 
   41300    1374.5764      6644452    6724.9433    48.731617    2.3577398    154137.93    157391.22 
   41400    1405.8373    6642736.5    6724.9433    48.731617    2.3577398    154082.88    157410.16 
   41500    1428.1987    6641441.9    6724.9433    48.731617    2.3577398    154044.48    157424.68 
   41600    1401.6742    6644688.7    6724.9433    48.731617    2.3577398     154132.6    157450.04 
   41700    1436.2118    6641338.2    6724.9433    48.731617    2.3577398    154037.27    157436.45 
   41800    1390.6972    6644231.2    6724.9433    48.731617    2.3577398    154125.66    157417.11 
   41900    1328.5087    6648326.2    6724.9433    48.731617    2.3577398    154251.42    157395.68 
   42000    1353.9965    6645659.8    6724.9433    48.731617    2.3577398    154177.13    157381.72 
   42100    1378.3096    6645557.7    6724.9433    48.731617    2.3577398    154162.39    157424.53 
   42200    1376.3749    6647094.5    6724.9433    48.731617    2.3577398    154200.48    157458.03 
   42300    1361.2723    6648428.8    6724.9433    48.731617    2.3577398     154239.3    157461.11 
   42400    1373.3478    6646016.8    6724.9433    48.731617    2.3577398    154176.12    157426.51 
   42500    1431.9696    6639928.3    6724.9433    48.731617    2.3577398    154006.46    157395.59 
   42600    1390.3713    6642256.4    6724.9433    48.731617    2.3577398    154078.93    157369.61 
   42700    1390.8509    6642896.9    6724.9433    48.731617    2.3577398    154093.96    157385.77 
   42800    1444.4895    6641411.5    6724.9433    48.731617    2.3577398    154037.05    157455.82 
   42900     1420.396    6644153.5    6724.9433    48.731617    2.3577398     154112.6    157474.34 
   43000    1387.4855    6645772.8    6724.9433    48.731617    2.3577398    154165.56    157449.41 
   43100    1373.6253    6644910.7    6724.9433    48.731617    2.3577398    154149.96    157401.01 
   43200    1347.9221    6645720.2    6724.9433    48.731617    2.3577398     154178.6    157368.81 
   43300    1385.6135    6643330.3    6724.9433    48.731617    2.3577398    154105.59    157385.01 
   43400    1409.1931    6643805.6    6724.9433    48.731617    2.3577398    154108.72    157443.94 
   43500    1393.9996    6646133.6    6724.9433    48.731617    2.3577398    154171.59    157470.85 
   43600    1362.5438    6648519.2    6724.9433    48.731617    2.3577398    154239.91    157464.73 
   43700    1432.0871    6640707.4    6724.9433    48.731617    2.3577398    154025.19     157414.6 
   43800    1356.1165    6644652.8    6724.9433    48.731617    2.3577398     154150.1    157359.71 
   43900    1422.3424    6639907.2    6724.9433    48.731617    2.3577398    154009.56    157375.91 
   44000    1415.4172    6642918.5    6724.9433    48.731617    2.3577398    154084.21    157434.16 
   44100    1414.3625      6643872    6724.9433    48.731617    2.3577398    154108.76    157456.22 
   44200    1389.7734    6645935.2    6724.9433    48.731617    2.3577398    154168.14    157457.41 
   44300    1393.1299    6644598.6    6724.9433    48.731617    2.3577398    154133.98    157431.19 
   44400    1407.0896    6641731.6    6724.9433    48.731617    2.3577398    154058.66    157388.91 
   44500    1407.3117    6641443.3    6724.9433    48.731617    2.3577398    154051.78    157382.56 
   44600    1368.0122    6646108.9    6724.9433    48.731617    2.3577398    154180.76    157418.52 
   44700    1404.2688    6644561.1    6724.9433    48.731617    2.3577398    154128.91    157452.48 
   44800    1344.3558    6649341.4    6724.9433    48.731617    2.3577398     154267.8    157449.57 
   44900    1384.3581    6644895.3    6724.9433    48.731617    2.3577398    154144.23    157420.67 
   45000    1361.4514    6645020.1    6724.9433    48.731617    2.3577398    154156.67     157378.9 
   45100    1368.1039    6644886.8    6724.9433    48.731617    2.3577398    154150.44    157388.41 
   45200     1420.573    6641938.8    6724.9433    48.731617    2.3577398    154059.66    157421.82 
   45300    1415.7074    6643563.7    6724.9433    48.731617    2.3577398     154098.7    157449.34 
   45400    1424.2304    6642382.8    6724.9433    48.731617    2.3577398    154068.27    157439.08 
   45500    1430.0412    6640484.4    6724.9433    48.731617    2.3577398    154019.55    157404.11 
   45600    1445.4446    6639274.8    6724.9433    48.731617    2.3577398    153983.86    157404.89 
   45700    1382.9589    6646092.9    6724.9433    48.731617    2.3577398     154172.3    157445.44 
   45800    1354.6797    6648412.2    6724.9433    48.731617    2.3577398    154242.28    157448.49 
   45900    1420.7999    6642157.2    6724.9433    48.731617    2.3577398     154062.6     157425.3 
   46000    1412.8259    6641715.5    6724.9433    48.731617    2.3577398    154056.91    157400.74 
   46100    1409.6492    6641957.2    6724.9433    48.731617    2.3577398    154062.55    157398.86 
   46200    1461.9686    6638547.6    6724.9433    48.731617    2.3577398    153960.07    157420.21 
   46300    1401.5234    6644435.3    6724.9433    48.731617    2.3577398    154126.51    157443.59 
   46400    1422.5385    6642953.3    6724.9433    48.731617    2.3577398    154083.12    157449.93 
   46500    1374.1128    6645476.6    6724.9433    48.731617    2.3577398    154162.26    157414.46 
   46600    1384.8303    6644324.6    6724.9433    48.731617    2.3577398    154131.16    157408.73 
   46700    1458.6215    6638587.7    6724.9433    48.731617    2.3577398    153962.96    157415.18 
   46800    1423.3343    6641880.6    6724.9433    48.731617    2.3577398    154055.09    157423.78 
   46900    1382.1691    6645686.5    6724.9433    48.731617    2.3577398    154165.12    157436.39 
   47000     1443.157    6640558.5    6724.9433    48.731617    2.3577398    154016.55    157432.16 
   47100    1333.3091    6648664.6    6724.9433    48.731617    2.3577398    154257.08    157412.71 
   47200    1365.1941    6646189.3    6724.9433    48.731617    2.3577398    154182.68    157413.77 
   47300    1353.3424      6647232    6724.9433    48.731617    2.3577398    154213.36    157416.41 
   47400    1424.3829    6641790.7    6724.9433    48.731617    2.3577398    154054.17    157425.34 
   47500    1368.3505    6645590.2    6724.9433    48.731617    2.3577398    154168.21    157406.77 
   47600    1410.0676    6642627.8    6724.9433    48.731617    2.3577398    154079.45    157416.75 
   47700     1437.966    6641132.1    6724.9433    48.731617    2.3577398    154032.86    157436.18 
   47800    1432.0923    6641008.4    6724.9433    48.731617    2.3577398    154031.61    157421.04 
   47900      1361.28    6646790.5    6724.9433    48.731617    2.3577398     154200.4    157422.23 
   48000    1380.1506    6645486.7    6724.9433    48.731617    2.3577398    154160.33    157426.82 
   48100    1319.7215    6649326.5    6724.9433    48.731617    2.3577398    154277.66    157401.13 
   48200    1407.0064    6642830.3    6724.9433    48.731617    2.3577398    154084.21    157414.26 
   48300    1394.3467    6643965.3    6724.9433    48.731617    2.3577398    154119.16    157419.25 
   48400    1415.1191    6642532.7    6724.9433    48.731617    2.3577398    154075.37    157424.62 
   48500    1370.5486    6646270.1    6724.9433    48.731617    2.3577398    154182.22    157425.98 
   48600    1388.4214    6644800.4    6724.9433    48.731617    2.3577398    154139.57    157425.63 
   48700    1426.7922    6641507.6    6724.9433    48.731617    2.3577398    154045.57    157422.45 
   48800     1433.589    6641130.6    6724.9433    48.731617    2.3577398    154034.42    157427.38 
   48900    1402.7175    6643280.1    6724.9433    48.731617    2.3577398    154097.82    157417.72 
   49000    1377.8743    6645522.3    6724.9433    48.731617    2.3577398    154162.48    157423.59 
   49100    1423.0265    6642061.8    6724.9433    48.731617    2.3577398    154062.29    157430.25 
   49200     1411.549    6642987.2    6724.9433    48.731617    2.3577398    154088.02    157428.82 
   49300    1351.5871      6647681    6724.9433    48.731617    2.3577398    154225.16    157424.05 
   49400    1414.2774    6642551.2    6724.9433    48.731617    2.3577398    154077.08    157424.34 
   49500    1328.7277    6648434.9    6724.9433    48.731617    2.3577398    154251.02     157395.8 
   49600    1426.7329      6640677    6724.9433    48.731617    2.3577398    154025.74    157402.47 
   49700    1399.0798    6643132.8    6724.9433    48.731617    2.3577398    154095.09    157406.38 
   49800    1420.3039    6642657.7    6724.9433    48.731617    2.3577398    154077.04    157438.57 
   49900    1496.3736    6636897.2    6724.9433    48.731617    2.3577398    153908.29    157449.85 
   50000    1407.1628      6643593    6724.9433    48.731617    2.3577398     154105.5    157435.92 
   50100    1419.7176    6641826.6    6724.9433    48.731617    2.3577398     154055.7    157415.83 
   50200    1397.5954    6642768.8    6724.9433    48.731617    2.3577398    154086.77    157394.55 
   50300     1362.494    6645567.2    6724.9433    48.731617    2.3577398     154168.1     157392.8 
   50400    1426.8072    6641953.4    6724.9433    48.731617    2.3577398    154055.92    157432.84 
   50500    1393.3204    6645211.5    6724.9433    48.731617    2.3577398    154147.76    157445.42 
   50600    1412.8776      6643144    6724.9433    48.731617    2.3577398    154089.86     157433.8 
   50700    1413.0407    6642411.7    6724.9433    48.731617    2.3577398    154072.71    157417.04 
   50800    1417.3862    6640753.2    6724.9433    48.731617    2.3577398    154031.64    157386.26 
   50900    1356.6942    6645766.9    6724.9433    48.731617    2.3577398    154175.98    157386.95 
   51000    1419.0985    6643057.7    6724.9433    48.731617    2.3577398    154086.25    157444.92 
   51100    1392.1088    6645652.4    6724.9433    48.731617    2.3577398    154161.34    157456.13 
   51200    1407.2402      6643328    6724.9433    48.731617    2.3577398    154098.21    157428.82 
   51300    1404.2071    6642003.2    6724.9433    48.731617    2.3577398    154066.37     157389.8 
   51400    1398.0602    6642501.4    6724.9433    48.731617    2.3577398    154081.61    157390.48 
   51500    1365.7256    6646042.3    6724.9433    48.731617    2.3577398    154182.36    157414.71 
   51600     1369.302    6646986.4    6724.9433    48.731617    2.3577398    154201.81    157442.62 
   51700    1453.6485    6641112.2    6724.9433    48.731617    2.3577398    154025.44    157465.89 
   51800    1378.4491    6645649.3    6724.9433    48.731617    2.3577398    154164.32    157426.79 
   51900    1428.2923    6640080.6    6724.9433    48.731617    2.3577398    154010.09    157390.52 
   52000    1361.7229    6644857.7    6724.9433    48.731617    2.3577398    154152.59    157375.47 
   52100    1389.5917    6643826.4    6724.9433    48.731617    2.3577398    154117.36    157406.19 
   52200    1411.8238    6643978.8    6724.9433    48.731617    2.3577398    154113.41    157454.86 
   52300    1447.4631    6641227.2    6724.9433    48.731617    2.3577398    154030.56    157456.36 
   52400    1383.9232    6644947.6    6724.9433    48.731617    2.3577398    154147.53    157422.95 
   52500    1372.3481    6644410.8    6724.9433    48.731617    2.3577398    154138.38     157386.4 
   52600    1405.7669      6641153    6724.9433    48.731617    2.3577398    154046.77    157373.89 
   52700    1419.2808    6641837.7    6724.9433    48.731617    2.3577398    154056.48    157415.58 
   52800    1409.4594    6644739.2    6724.9433    48.731617    2.3577398    154131.87    157467.73 
   52900    1421.8273    6644113.2    6724.9433    48.731617    2.3577398    154109.76    157474.89 
   53000    1400.7129    6644120.9    6724.9433    48.731617    2.3577398    154119.39    157434.55 
   53100    1358.3796    6644866.9    6724.9433    48.731617    2.3577398    154153.48    157368.44 
   53200    1368.4278    6644136.6    6724.9433    48.731617    2.3577398    154133.65     157372.4 
   53300    1377.8028    6645288.2    6724.9433    48.731617    2.3577398     154156.3    157417.23 
   53400    1394.5389    6645731.9    6724.9433    48.731617    2.3577398     154160.7    157461.24 
   53500    1396.8279    6645560.8    6724.9433    48.731617    2.3577398    154157.64     157463.6 
   53600    1405.8314    6643289.5    6724.9433    48.731617    2.3577398    154096.58    157423.85 
   53700    1390.7708    6642887.9    6724.9433    48.731617    2.3577398    154093.66    157385.28 
   53800    1384.2513      6643671    6724.9433    48.731617    2.3577398    154116.46    157392.65 
   53900    1369.1893    6646421.9    6724.9433    48.731617    2.3577398    154188.41    157428.95 
   54000     1381.068      6646176    6724.9433    48.731617    2.3577398    154179.04     157447.7 
   54100    1435.6391    6642163.2    6724.9433    48.731617    2.3577398    154057.66    157455.48 
   54200    1461.5458    6638734.2    6724.9433    48.731617    2.3577398    153966.69    157425.83 
   54300    1409.3012    6641279.6    6724.9433    48.731617    2.3577398    154047.86    157383.34 
   54400    1435.2254    6639302.5    6724.9433    48.731617    2.3577398    153989.49    157386.33 
   54500    1416.6506    6642384.9    6724.9433    48.731617    2.3577398    154070.55    157423.43 
   54600     1341.586      6648952    6724.9433    48.731617    2.3577398    154260.45    157435.67 
   54700    1438.6622    6641426.5    6724.9433    48.731617    2.3577398    154040.13    157445.11 
   54800    1399.6175    6644258.1    6724.9433    48.731617    2.3577398    154124.19    157436.75 
   54900    1398.9926    6642956.1    6724.9433    48.731617    2.3577398    154091.33    157402.42 
   55000    1411.6213    6641284.8    6724.9433    48.731617    2.3577398    154045.33     157386.3 
   55100    1428.9528    6640620.1    6724.9433    48.731617    2.3577398    154023.69    157405.68 
   55200    1447.1718    6640758.9    6724.9433    48.731617    2.3577398    154018.72    157443.83 
   55300    1364.5903    6648033.8    6724.9433    48.731617    2.3577398    154227.85    157457.51 
   55400    1353.8334    6647618.1    6724.9433    48.731617    2.3577398    154221.77    157425.97 
   55500    1371.1921    6644615.2    6724.9433    48.731617    2.3577398     154143.8    157389.08 
   55600    1397.7173    6642406.1    6724.9433    48.731617    2.3577398    154079.61    157387.68 
   55700    1416.1186    6642074.6    6724.9433    48.731617    2.3577398    154063.66    157415.28 
   55800    1410.3902    6643924.8    6724.9433    48.731617    2.3577398    154110.83    157448.89 
   55900    1370.3462    6647580.3    6724.9433    48.731617    2.3577398    154213.79    157457.07 
   56000    1399.1192    6644094.2    6724.9433    48.731617    2.3577398    154120.04    157431.42 
   56100    1445.5842    6639250.2    6724.9433    48.731617    2.3577398    153983.58    157404.94 
   56200    1415.3771    6641664.6    6724.9433    48.731617    2.3577398    154053.71    157403.57 
   56300    1367.8121    6645878.4    6724.9433    48.731617    2.3577398    154175.97    157413.26 
   56400    1429.9777    6641794.7    6724.9433    48.731617    2.3577398    154052.56    157436.97 
   56500    1373.7417    6646358.3    6724.9433    48.731617    2.3577398    154183.87    157435.19 
   56600    1382.8282    6645315.5    6724.9433    48.731617    2.3577398    154156.32    157429.15 
   56700    1437.4426    6639705.5    6724.9433    48.731617    2.3577398    153997.59    157399.68 
   56800     1368.741    6645065.4    6724.9433    48.731617    2.3577398    154155.16    157394.64 
   56900    1354.3492    6647411.4    6724.9433    48.731617    2.3577398    154218.83    157424.26 
   57000    1431.9051    6642229.3    6724.9433    48.731617    2.3577398    154063.89    157452.87 
   57100    1353.9118    6648549.6    6724.9433    48.731617    2.3577398    154245.86    157450.24 
   57200    1436.2776    6641060.8    6724.9433    48.731617    2.3577398     154031.9    157431.23 
   57300    1440.4615    6639441.1    6724.9433    48.731617    2.3577398     153991.1    157400.33 
   57400     1420.074    6639823.7    6724.9433    48.731617    2.3577398    154009.06    157370.04 
   57500    1403.5495    6642309.1    6724.9433    48.731617    2.3577398    154074.78    157396.64 
   57600    1422.3544      6643126    6724.9433    48.731617    2.3577398    154085.41    157451.78 
   57700    1411.3943    6645103.9    6724.9433    48.731617    2.3577398    154138.39    157478.83 
   57800    1371.9914    6646703.6    6724.9433    48.731617    2.3577398    154193.33    157440.51 
   57900    1373.6689    6644944.2    6724.9433    48.731617    2.3577398    154149.83    157400.98 
   58000    1373.6565    6644034.2    6724.9433    48.731617    2.3577398    154129.61    157380.73 
   58100    1390.3031    6642857.7    6724.9433    48.731617    2.3577398    154092.61    157383.13 
   58200    1398.6578    6643788.9    6724.9433    48.731617    2.3577398    154111.11     157421.4 
   58300    1419.0668      6643453    6724.9433    48.731617    2.3577398    154096.35    157454.94 
   58400    1403.5968    6645068.9    6724.9433    48.731617    2.3577398     154141.7    157463.68 
   58500    1422.7091    6641580.2    6724.9433    48.731617    2.3577398    154047.45    157414.67 
   58600    1377.1652    6643674.6    6724.9433    48.731617    2.3577398    154117.89    157377.31 
   58700    1345.7291      6646589    6724.9433    48.731617    2.3577398    154200.88     157385.9 
   58800    1433.7327    6640744.9    6724.9433    48.731617    2.3577398       154025    157418.31 
   58900    1399.0352    6644878.3    6724.9433    48.731617    2.3577398    154139.97    157451.15 
   59000    1419.9135    6643329.5    6724.9433    48.731617    2.3577398    154092.67    157453.27 
   59100    1428.4218    6641694.8    6724.9433    48.731617    2.3577398    154049.69    157430.42 
   59200    1369.9753    6644817.3    6724.9433    48.731617    2.3577398    154149.01    157391.42 
   59300    1379.9697    6643226.9    6724.9433    48.731617    2.3577398    154106.09    157372.15 
   59400     1362.571    6646549.1    6724.9433    48.731617    2.3577398    154192.82     157417.7 
   59500    1405.0505    6644470.6    6724.9433    48.731617    2.3577398    154126.09    157451.51 
   59600    1410.5759    6644256.4    6724.9433    48.731617    2.3577398    154118.81    157457.31 
   59700    1352.7599    6647852.7    6724.9433    48.731617    2.3577398    154229.46    157431.12 
   59800     1420.591    6641124.2    6724.9433    48.731617    2.3577398    154038.64    157400.84 
   59900    1386.7362    6642870.8    6724.9433    48.731617    2.3577398    154095.65    157377.73 
   60000    1371.2399    6644612.9    6724.9433    48.731617    2.3577398    154141.99    157387.39 
   60100    1422.9135    6642756.3    6724.9433    48.731617    2.3577398     154078.2     157445.9 
   60200     1388.631      6646575    6724.9433    48.731617    2.3577398    154183.05    157469.61 
   60300    1400.2499    6644557.5    6724.9433    48.731617    2.3577398    154131.37    157445.43 
   60400    1457.8708    6638205.7    6724.9433    48.731617    2.3577398    153952.94    157403.38 
   60500    1361.4346    6645119.2    6724.9433    48.731617    2.3577398     154158.2    157380.39 
   60600    1355.9817    6645789.1    6724.9433    48.731617    2.3577398    154177.36    157386.65 
   60700    1377.1298    6646059.5    6724.9433    48.731617    2.3577398    154175.91    157435.25 
   60800    1418.5156    6644135.8    6724.9433    48.731617    2.3577398    154112.93    157470.22 
   60900    1370.3869    6647584.3    6724.9433    48.731617    2.3577398    154214.38    157457.76 
   61000    1451.3009    6639159.1    6724.9433    48.731617    2.3577398    153980.21    157415.09 
   61100    1363.2356    6644388.7    6724.9433    48.731617    2.3577398     154139.3    157365.76 
   61200    1379.5286    6643677.1    6724.9433    48.731617    2.3577398    154116.91    157381.93 
   61300    1428.7662    6641990.3    6724.9433    48.731617    2.3577398    154055.79    157437.34 
   61400    1433.6198    6643471.9    6724.9433    48.731617    2.3577398    154089.35    157482.39 
   61500    1444.3074    6641891.5    6724.9433    48.731617    2.3577398    154049.28    157467.62 
   61600    1397.9275    6643603.4    6724.9433    48.731617    2.3577398    154107.56    157416.12 
   61700    1366.2736    6644153.2    6724.9433    48.731617    2.3577398    154134.12    157367.77 
   61800     1371.313    6643964.3    6724.9433    48.731617    2.3577398    154128.49    157374.07 
   61900    1375.7967      6645268    6724.9433    48.731617    2.3577398    154159.39    157415.58 
   62000    1390.6486    6646328.4    6724.9433    48.731617    2.3577398    154177.26     157468.6 
   62100    1384.3122    6647061.9    6724.9433    48.731617    2.3577398    154196.75    157473.09 
   62200    1415.8234    6642351.2    6724.9433    48.731617    2.3577398    154071.01    157421.93 
   62300    1429.7193    6639514.2    6724.9433    48.731617    2.3577398    153997.05    157380.86 
   62400    1388.7574    6642629.9    6724.9433    48.731617    2.3577398    154086.83    157373.69 
   62500    1404.9033    6642416.3    6724.9433    48.731617    2.3577398       154076    157401.07 
   62600    1466.6948    6639969.6    6724.9433    48.731617    2.3577398    153994.11    157465.43 
   62700    1427.3877    6643536.5    6724.9433    48.731617    2.3577398    154093.95    157472.24 
   62800    1404.9913    6643067.3    6724.9433    48.731617    2.3577398    154093.02     157418.3 
   62900    1381.4583    6643597.7    6724.9433    48.731617    2.3577398       154114    157383.58 
   63000    1435.6527    6638979.6    6724.9433    48.731617    2.3577398    153982.58    157380.43 
   63100    1410.0672    6642109.2    6724.9433    48.731617    2.3577398    154067.87    157405.16 
   63200    1357.1472    6647771.3    6724.9433    48.731617    2.3577398    154226.69    157438.74 
   63300    1351.8991    6649716.4    6724.9433    48.731617    2.3577398    154274.11    157473.74 
   63400    1444.1081    6640942.8    6724.9433    48.731617    2.3577398    154026.15    157444.01 
   63500    1363.2171    6645008.5    6724.9433    48.731617    2.3577398    154155.87    157382.28 
   63600    1429.5046    6639048.1    6724.9433    48.731617    2.3577398    153985.63    157368.93 
   63700    1388.9931    6643994.2    6724.9433    48.731617    2.3577398    154121.78     157409.2 
   63800     1389.053      6645371    6724.9433    48.731617    2.3577398    154156.18    157443.74 
   63900    1434.4002    6642268.8    6724.9433    48.731617    2.3577398    154063.33    157458.21 
   64000    1413.4957    6643859.4    6724.9433    48.731617    2.3577398    154108.31    157453.72 
   64100    1377.8737    6645599.1    6724.9433    48.731617    2.3577398     154164.3     157425.4 
   64200    1369.1563    6644199.6    6724.9433    48.731617    2.3577398    154133.42    157373.89 
   64300    1404.1429    6641338.3    6724.9433    48.731617    2.3577398    154050.79    157374.07 
   64400    1442.6536    6639893.4    6724.9433    48.731617    2.3577398    154002.44    157416.86 
   64500    1449.7157    6641578.1    6724.9433    48.731617    2.3577398    154038.87       157470 
   64600    1343.7756    6649585.4    6724.9433    48.731617    2.3577398    154274.01    157454.41 
   64700    1434.6668    6640846.2    6724.9433    48.731617    2.3577398    154026.02    157421.54 
   64800    1348.2736    6646584.5    6724.9433    48.731617    2.3577398    154200.45     157391.5 
   64900    1366.9644    6644419.4    6724.9433    48.731617    2.3577398    154139.79    157375.07 
   65000    1379.1562    6644958.7    6724.9433    48.731617    2.3577398    154146.71    157410.85 
   65100    1411.6733    6643759.3    6724.9433    48.731617    2.3577398    154105.34    157446.44 
   65200    1398.6704    6645591.1    6724.9433    48.731617    2.3577398    154155.58    157465.91 
   65300    1414.0246    6643455.4    6724.9433    48.731617    2.3577398    154098.98    157445.65 
   65400    1383.4506    6644024.4    6724.9433    48.731617    2.3577398    154123.46    157397.76 
   65500    1349.7899    6645518.7    6724.9433    48.731617    2.3577398     154173.4    157368.04 
   65600    1414.2447    6641281.4    6724.9433    48.731617    2.3577398    154044.44    157391.63 
   65700    1382.8595      6646207    6724.9433    48.731617    2.3577398    154176.65    157449.55 
   65800    1442.3505    6642833.1    6724.9433    48.731617    2.3577398     154071.3       157485 
   65900    1403.5708    6644963.6    6724.9433    48.731617    2.3577398    154137.16    157459.08 
   66000    1389.0684    6644269.6    6724.9433    48.731617    2.3577398    154127.12    157414.72 
   66100      1380.55    6643004.1    6724.9433    48.731617    2.3577398    154101.75    157369.19 
   66200     1402.158    6641620.5    6724.9433    48.731617    2.3577398    154058.92     157377.5 
   66300    1376.5655    6645817.6    6724.9433    48.731617    2.3577398     154170.5     157428.5 
   66400    1391.9882    6646504.4    6724.9433    48.731617    2.3577398    154181.15    157475.66 
   66500    1439.1718    6641830.2    6724.9433    48.731617    2.3577398    154049.44    157455.62 
   66600    1398.0602    6642773.5    6724.9433    48.731617    2.3577398    154088.78    157397.66 
   66700    1416.9636    6640359.9    6724.9433    48.731617    2.3577398    154021.62    157375.24 
   66800    1377.9797    6644249.6    6724.9433    48.731617    2.3577398    154132.85     157394.2 
   66900    1428.0186    6642122.2    6724.9433    48.731617    2.3577398    154058.96    157438.74 
   67000    1396.9342    6645495.1    6724.9433    48.731617    2.3577398    154154.16    157460.37 
   67100    1442.9977    6640985.3    6724.9433    48.731617    2.3577398    154027.59    157442.82 
   67200    1405.3726      6642217    6724.9433    48.731617    2.3577398    154070.84    157397.02 
   67300    1346.9991    6646114.8    6724.9433    48.731617    2.3577398    154189.69    157377.72 
   67400    1425.7841      6641457    6724.9433    48.731617    2.3577398    154044.86    157419.36 
   67500    1416.9597    6644270.5    6724.9433    48.731617    2.3577398    154117.65    157471.26 
   67600    1366.4589    6647530.7    6724.9433    48.731617    2.3577398    154215.83    157449.91 
   67700    1386.8696    6645035.9    6724.9433    48.731617    2.3577398    154146.38    157428.77 
   67800    1358.0396    6645419.5    6724.9433    48.731617    2.3577398    154167.31    157381.46 
   67900    1396.4306    6642262.4    6724.9433    48.731617    2.3577398    154077.51    157382.53 
   68000      1415.74    6641768.3    6724.9433    48.731617    2.3577398    154056.92    157407.64 
   68100    1439.9171      6641835    6724.9433    48.731617    2.3577398    154048.31    157456.25 
   68200    1435.3657    6642649.7    6724.9433    48.731617    2.3577398    154071.84    157469.01 
   68300    1375.9197    6645546.8    6724.9433    48.731617    2.3577398    154164.33    157420.81 
   68400    1357.5174    6645878.6    6724.9433    48.731617    2.3577398    154177.31    157390.23 
   68500    1401.0065    6641842.6    6724.9433    48.731617    2.3577398    154064.34    157380.19 
   68600    1414.2291    6641859.5    6724.9433    48.731617    2.3577398    154059.18    157406.33 
   68700    1401.2529      6644142    6724.9433    48.731617    2.3577398    154119.77     157436.2 
   68800     1384.217    6646587.3    6724.9433    48.731617    2.3577398    154186.82    157462.94 
   68900    1364.7393    6647671.4    6724.9433    48.731617    2.3577398     154219.3    157449.32 
   69000    1388.5316    6643731.4    6724.9433    48.731617    2.3577398    154114.69    157401.01 
   69100    1396.0286    6641941.9    6724.9433    48.731617    2.3577398    154068.21    157372.28 
   69200    1433.2612    6639377.9    6724.9433    48.731617    2.3577398    153992.76    157384.95 
   69300    1407.8296    6643034.2    6724.9433    48.731617    2.3577398    154092.38    157424.38 
   69400    1400.3398    6645334.7    6724.9433    48.731617    2.3577398    154147.41    157461.68 
   69500    1396.0537    6645856.9    6724.9433    48.731617    2.3577398    154163.08     157467.2 
   69600    1347.4609    6648240.8    6724.9433    48.731617    2.3577398     154240.2    157429.32 
   69700    1423.2693    6640222.6    6724.9433    48.731617    2.3577398    154016.67    157385.21 
   69800    1372.9584    6643400.4    6724.9433    48.731617    2.3577398    154114.13     157363.6 
   69900    1408.0592    6641935.8    6724.9433    48.731617    2.3577398    154063.78    157396.32 
   70000    1432.5041    6642742.6    6724.9433    48.731617    2.3577398    154074.77    157465.17 
   70100    1407.8977    6645837.6    6724.9433    48.731617    2.3577398    154158.62    157490.78 
   70200    1397.2626    6644816.6    6724.9433    48.731617    2.3577398    154138.68    157445.67 
   70300    1330.7832    6647823.4    6724.9433    48.731617    2.3577398    154236.36    157386.01 
   70400     1386.488    6641751.6    6724.9433    48.731617    2.3577398     154067.8    157349.29 
   70500    1401.8131    6641483.6    6724.9433    48.731617    2.3577398    154056.66    157374.42 
   70600    1422.6507    6642206.4    6724.9433    48.731617    2.3577398    154067.05    157434.12 
   70700    1455.8659    6642563.2    6724.9433    48.731617    2.3577398    154060.86    157506.55 
   70800    1357.3649    6649885.6    6724.9433    48.731617    2.3577398    154277.54     157490.1 
   70900    1409.3532    6642581.9    6724.9433    48.731617    2.3577398    154080.51    157416.11 
   71000      1413.22      6639351    6724.9433    48.731617    2.3577398    153998.93    157343.68 
   71100    1395.1235    6640959.9    6724.9433    48.731617    2.3577398    154044.71    157346.64 
   71200    1442.2457    6639715.2    6724.9433    48.731617    2.3577398     153996.3    157409.75 
   71300    1439.2778    6642660.1    6724.9433    48.731617    2.3577398    154069.21    157475.64 
   71400    1405.4711    6646674.1    6724.9433    48.731617    2.3577398    154178.77    157505.19 
   71500    1399.3658    6644942.4    6724.9433    48.731617    2.3577398    154140.23    157452.19 
   71600    1383.1525      6642781    6724.9433    48.731617    2.3577398    154094.53    157368.13 
   71700    1423.7097    6638600.7    6724.9433    48.731617    2.3577398    153976.36    157345.94 
   71800     1335.318    6647225.6    6724.9433    48.731617    2.3577398    154220.92     157381.3 
   71900    1390.0974      6645698    6724.9433    48.731617    2.3577398    154162.58    157452.61 
   72000    1398.5009    6646713.4    6724.9433    48.731617    2.3577398    154183.43    157493.35 
   72100    1386.4406    6646711.5    6724.9433    48.731617    2.3577398    154189.42     157470.8 
   72200    1410.7473    6642188.5    6724.9433    48.731617    2.3577398    154069.18    157408.08 
   72300    1368.0939      6643378    6724.9433    48.731617    2.3577398     154113.3    157351.26 
   72400    1364.0299    6644173.9    6724.9433    48.731617    2.3577398    154135.71    157364.04 
   72500    1407.8369    6643309.1    6724.9433    48.731617    2.3577398    154096.18     157428.2 
   72600    1467.9445    6640891.9    6724.9433    48.731617    2.3577398    154014.08    157488.36 
   72700    1405.1631    6645547.9    6724.9433    48.731617    2.3577398    154151.61     157477.3 
   72800    1405.1563    6643448.5    6724.9433    48.731617    2.3577398    154103.04    157428.71 
   72900    1394.4695    6641736.5    6724.9433    48.731617    2.3577398    154063.88    157364.26 
   73000    1449.2829    6637284.3    6724.9433    48.731617    2.3577398    153934.37    157364.48 
   73100    1376.8928    6644723.3    6724.9433    48.731617    2.3577398    154144.05    157402.83 
   73200    1356.5332      6648502    6724.9433    48.731617    2.3577398    154244.56    157455.15 
   73300    1416.7029    6644146.1    6724.9433    48.731617    2.3577398    154113.32    157466.32 
   73400    1413.4565      6643450    6724.9433    48.731617    2.3577398    154099.67    157444.99 
   73500    1391.2757    6643374.1    6724.9433    48.731617    2.3577398    154104.84    157397.66 
   73600    1389.5907    6642267.7    6724.9433    48.731617    2.3577398    154079.17       157368 
   73700    1376.3019    6644548.3    6724.9433    48.731617    2.3577398    154139.63    157397.01 
   73800    1453.5202    6640278.3    6724.9433    48.731617    2.3577398    154006.32    157446.46 
   73900    1373.0361    6647839.9    6724.9433    48.731617    2.3577398    154220.53    157470.18 
   74000    1436.6448    6641276.2    6724.9433    48.731617    2.3577398    154036.47    157436.67 
   74100    1382.1633    6643891.8    6724.9433    48.731617    2.3577398     154120.9    157392.15 
   74200    1339.4208    6646850.1    6724.9433    48.731617    2.3577398    154209.84    157379.93 
   74300    1408.8746    6641941.1    6724.9433    48.731617    2.3577398    154063.35    157397.82 
   74400    1392.6408    6644740.3    6724.9433    48.731617    2.3577398    154139.08    157435.14 
   74500    1371.3513    6647287.9    6724.9433    48.731617    2.3577398    154207.88    157453.55 
   74600    1359.0491    6647829.3    6724.9433    48.731617    2.3577398    154226.78    157443.33 
   74700    1404.8992    6642559.1    6724.9433    48.731617    2.3577398     154080.7    157405.76 
   74800    1415.5564    6640792.8    6724.9433    48.731617    2.3577398    154033.78    157384.07 
   74900     1389.492    6643228.9    6724.9433    48.731617    2.3577398     154102.9     157391.5 
   75000    1375.2569    6645815.4    6724.9433    48.731617    2.3577398     154168.9    157423.81 
   75100    1467.8565    6639096.4    6724.9433    48.731617    2.3577398    153973.24    157447.31 
   75200    1363.8908    6647087.8    6724.9433    48.731617    2.3577398     154204.2    157432.21 
   75300    1393.2667    6643892.6    6724.9433    48.731617    2.3577398     154117.8    157415.33 
   75400    1355.6699    6646559.7    6724.9433    48.731617    2.3577398    154194.64    157403.19 
   75500    1381.5074    6644083.3    6724.9433    48.731617    2.3577398    154126.36    157396.06 
   75600    1474.0659    6637961.5    6724.9433    48.731617    2.3577398    153940.31    157429.07 
   75700    1404.0099    6643853.6    6724.9433    48.731617    2.3577398    154111.98    157434.93 
[...]
  381700    1379.4868    6638710.6    6724.9433    48.731617    2.3577398    153996.06    157260.98 
  381800    1479.3814    6640308.2    6724.9433    48.731617    2.3577398    153996.19    157497.53 
  381900    1444.4446    6645609.1    6724.9433    48.731617    2.3577398     154138.2    157556.86 
  382000    1403.8824      6646553    6724.9433    48.731617    2.3577398    154178.82    157501.48 
  382100    1420.9326    6636661.1    6724.9433    48.731617    2.3577398    153931.33    157294.34 
  382200    1332.6675      6639760    6724.9433    48.731617    2.3577398    154041.18    157195.29 
  382300    1396.7697    6637678.9    6724.9433    48.731617    2.3577398    153964.86    157270.69 
  382400    1376.1757    6643967.7    6724.9433    48.731617    2.3577398    154126.18    157383.26 
  382500    1452.8481    6641653.7    6724.9433    48.731617    2.3577398    154039.15     157477.7 
  382600    1400.8881      6647977    6724.9433    48.731617    2.3577398    154212.01    157527.58 
  382700    1451.4378      6642648    6724.9433    48.731617    2.3577398    154062.78    157497.98 
  382800    1391.3855    6639987.2    6724.9433    48.731617    2.3577398    154022.98    157316.06 
  382900    1344.0917    6640203.7    6724.9433    48.731617    2.3577398    154046.04    157227.19 
  383000    1368.8019    6642474.9    6724.9433    48.731617    2.3577398    154092.56    157332.19 
  383100     1369.738    6650762.4    6724.9433    48.731617    2.3577398    154292.36     157534.2 
  383200    1378.7573    6650196.5    6724.9433    48.731617    2.3577398    154274.68    157537.87 
  383300    1399.1557    6645150.8    6724.9433    48.731617    2.3577398    154144.94    157456.41 
  383400    1378.8599      6643999    6724.9433    48.731617    2.3577398    154124.83    157388.26 
  383500    1422.6072    6636121.3    6724.9433    48.731617    2.3577398    153915.69    157282.67 
  383600    1308.6665    6635872.5    6724.9433    48.731617    2.3577398    153955.44    157052.74 
  383700    1355.4524      6633664    6724.9433    48.731617    2.3577398    153884.25    157092.28 
  383800    1373.0427    6641340.8    6724.9433    48.731617    2.3577398    154063.44     157313.1 
  383900    1413.6107    6642643.5    6724.9433    48.731617    2.3577398    154078.72     157424.4 
  384000    1467.5917    6641825.4    6724.9433    48.731617    2.3577398    154038.34    157511.78 
  384100    1476.8739    6641836.4    6724.9433    48.731617    2.3577398    154033.89     157529.3 
  384200    1393.7424    6642480.6    6724.9433    48.731617    2.3577398    154082.39    157381.05 
  384300    1336.7665      6640090    6724.9433    48.731617    2.3577398    154045.83    157209.64 
  384400    1341.9374    6641444.2    6724.9433    48.731617    2.3577398    154077.68    157253.73 
  384500    1420.3196    6642771.1    6724.9433    48.731617    2.3577398    154079.57    157441.13 
  384600    1426.1857    6643897.9    6724.9433    48.731617    2.3577398    154103.23    157478.68 
  384700    1379.9939      6646714    6724.9433    48.731617    2.3577398     154190.7    157456.82 
  384800     1408.369    6641632.2    6724.9433    48.731617    2.3577398    154055.55    157388.82 
  384900    1350.1211    6640020.8    6724.9433    48.731617    2.3577398    154039.49    157234.91 
  385000    1312.5207    6637746.9    6724.9433    48.731617    2.3577398    153999.57       157106 
  385100    1353.9222    6642337.7    6724.9433    48.731617    2.3577398    154096.14    157300.56 
  385200    1431.3461    6643170.2    6724.9433    48.731617    2.3577398    154084.84     157472.5 
  385300    1404.7954    6645205.5    6724.9433    48.731617    2.3577398    154144.31    157469.13 
  385400    1396.0947    6643391.8    6724.9433    48.731617    2.3577398    154104.63    157408.85 
  385500    1396.6923      6638835    6724.9433    48.731617    2.3577398    153992.23    157297.87 
  385600    1329.0016    6640379.9    6724.9433    48.731617    2.3577398    154056.66    157202.09 
  385700    1380.3968    6639540.4    6724.9433    48.731617    2.3577398    154016.39    157283.46 
  385800    1442.6581    6644257.5    6724.9433    48.731617    2.3577398    154106.68    157521.11 
  385900    1448.6923    6644767.6    6724.9433    48.731617    2.3577398    154116.38    157545.09 
  386000    1439.4956    6641320.4    6724.9433    48.731617    2.3577398    154034.99    157441.94 
  386100    1343.8753    6641506.5    6724.9433    48.731617    2.3577398    154078.33    157258.96 
  386200    1385.6948    6636748.2    6724.9433    48.731617    2.3577398    153946.27    157225.88 
  386300    1418.5157    6645012.7    6724.9433    48.731617    2.3577398    154134.05    157491.34 
  386400    1481.3977    6645463.1    6724.9433    48.731617    2.3577398    154120.63    157626.75 
  386500    1395.6389      6647642    6724.9433    48.731617    2.3577398    154206.43    157509.58 
  386600     1403.299    6639719.7    6724.9433    48.731617    2.3577398    154012.06    157333.33 
  386700    1375.3684    6640204.5    6724.9433    48.731617    2.3577398    154033.26    157288.44 
  386800     1347.335    6646706.5    6724.9433    48.731617    2.3577398    154202.98     157391.8 
  386900    1468.2091    6646415.7    6724.9433    48.731617    2.3577398    154149.43    157624.33 
  387000    1423.5096    6649336.4    6724.9433    48.731617    2.3577398    154237.88    157606.99 
  387100    1382.7115    6648530.4    6724.9433    48.731617    2.3577398    154234.81    157507.36 
  387200    1404.6355    6642769.8    6724.9433    48.731617    2.3577398    154086.68    157411.12 
  387300    1399.9073    6641807.1    6724.9433    48.731617    2.3577398    154063.49    157376.74 
  387400    1420.5414      6639945    6724.9433    48.731617    2.3577398    154010.44    157372.53 
  387500    1471.8445    6643249.8    6724.9433    48.731617    2.3577398    154071.77    157555.28 
  387600    1411.1856    6655879.7    6724.9433    48.731617    2.3577398    154401.95    157741.89 
  387700    1450.0686    6647811.8    6724.9433    48.731617    2.3577398     154191.4    157623.37 
  387800    1381.0128    6646270.4    6724.9433    48.731617    2.3577398    154180.17     157448.7 
  387900      1394.11    6642456.8    6724.9433    48.731617    2.3577398    154083.49    157383.02 
  388000    1340.5744    6645384.4    6724.9433    48.731617    2.3577398    154172.23    157345.05 
  388100    1394.4641    6643720.9    6724.9433    48.731617    2.3577398    154111.81    157412.18 
  388200    1475.7125    6645948.6    6724.9433    48.731617    2.3577398    154133.83    157626.49 
  388300    1445.8227    6649516.2    6724.9433    48.731617    2.3577398    154231.61    157653.53 
  388400    1364.3909      6647410    6724.9433    48.731617    2.3577398    154214.27    157443.46 
  388500    1368.5736    6642365.5    6724.9433    48.731617    2.3577398    154089.71     157328.8 
  388600    1409.6759    6640209.5    6724.9433    48.731617    2.3577398    154021.88    157358.25 
  388700    1409.6412    6644215.5    6724.9433    48.731617    2.3577398    154118.21     157454.5 
  388800    1445.8741      6647489    6724.9433    48.731617    2.3577398    154184.69    157606.74 
  388900    1446.3223    6648005.9    6724.9433    48.731617    2.3577398    154195.55    157618.66 
  389000     1405.369    6639767.5    6724.9433    48.731617    2.3577398    154013.05    157339.22 
  389100    1301.5129    6644488.1    6724.9433    48.731617    2.3577398    154167.87    157248.25 
  389200     1379.193    6642336.8    6724.9433    48.731617    2.3577398    154085.31    157349.53 
  389300    1372.4236    6649909.2    6724.9433    48.731617    2.3577398    154272.74    157520.94 
  389400    1434.5321    6647040.4    6724.9433    48.731617    2.3577398    154177.04    157572.24 
  389500     1440.488    6643759.2    6724.9433    48.731617    2.3577398     154095.5    157504.79 
  389600    1417.1761    6642674.7    6724.9433    48.731617    2.3577398    154078.51    157432.63 
  389700    1427.0027    6640901.5    6724.9433    48.731617    2.3577398    154031.09    157408.46 
  389800    1427.1151    6641004.6    6724.9433    48.731617    2.3577398    154034.53    157412.17 
  389900    1365.0958    6646959.8    6724.9433    48.731617    2.3577398    154201.48    157432.34 
  390000    1456.1116    6641869.6    6724.9433    48.731617    2.3577398    154041.74    157488.01 
  390100    1515.2121    6640543.9    6724.9433    48.731617    2.3577398    153987.74    157573.89 
  390200    1441.2531      6645276    6724.9433    48.731617    2.3577398    154130.99    157542.09 
  390300    1374.8853    6642059.9    6724.9433    48.731617    2.3577398    154079.37     157333.4 
  390400    1345.6531    6641090.3    6724.9433    48.731617    2.3577398    154068.43    157253.27 
  390500    1456.0056    6636096.7    6724.9433    48.731617    2.3577398    153903.76    157349.78 
  390600    1444.1687    6641139.6    6724.9433    48.731617    2.3577398    154031.38    157449.39 
  390700    1408.4004    6645297.7    6724.9433    48.731617    2.3577398    154144.65       157478 
  390800    1379.4305    6646880.1    6724.9433    48.731617    2.3577398     154195.2    157459.98 
  390900    1389.7091    6644098.8    6724.9433    48.731617    2.3577398    154124.15    157413.26 
  391000    1380.4961    6641469.7    6724.9433    48.731617    2.3577398    154064.76    157332.07 
  391100    1347.0125      6640833    6724.9433    48.731617    2.3577398    154061.72    157249.78 
  391200     1319.496    6642317.5    6724.9433    48.731617    2.3577398    154107.03    157229.96 
  391300    1381.5895      6644756    6724.9433    48.731617    2.3577398    154142.13    157412.03 
  391400    1461.9578    6644603.5    6724.9433    48.731617    2.3577398    154107.06    157567.17 
  391500    1447.8631      6644417    6724.9433    48.731617    2.3577398    154108.06    157534.81 
  391600    1397.4455    6642705.9    6724.9433    48.731617    2.3577398    154085.37    157392.79 
  391700    1365.8771    6638096.8    6724.9433    48.731617    2.3577398    153987.58    157220.29 
  391800     1383.372    6638058.2    6724.9433    48.731617    2.3577398     153978.8    157252.91 
  391900     1395.178    6652084.6    6724.9433    48.731617    2.3577398    154315.03    157617.09 
  392000    1390.8711    6651664.9    6724.9433    48.731617    2.3577398    154305.61    157597.48 
  392100    1378.4074    6644930.7    6724.9433    48.731617    2.3577398    154149.03     157411.4 
  392200    1396.3635    6638526.2    6724.9433    48.731617    2.3577398    153986.41    157291.27 
  392300    1341.8171    6643020.9    6724.9433    48.731617    2.3577398    154116.29    157292.05 
  392400     1391.094    6646315.9    6724.9433    48.731617    2.3577398    154176.84    157469.23 
  392500    1398.7923    6651776.9    6724.9433    48.731617    2.3577398    154306.21    157616.82 
  392600    1439.1542    6646287.2    6724.9433    48.731617    2.3577398    154157.46     157563.6 
  392700    1400.2475    6645463.5    6724.9433    48.731617    2.3577398    154153.72    157467.77 
  392800    1376.9909    6645286.6    6724.9433    48.731617    2.3577398    154156.72    157415.74 
  392900    1360.3791    6645351.3    6724.9433    48.731617    2.3577398    154166.63    157386.32 
  393000    1430.5089    6638859.1    6724.9433    48.731617    2.3577398     153980.6    157366.28 
  393100     1435.154    6640054.5    6724.9433    48.731617    2.3577398    154007.54    157404.21 
  393200    1429.7938    6644539.6    6724.9433    48.731617    2.3577398    154118.13    157502.11 
  393300     1390.074    6650004.9    6724.9433    48.731617    2.3577398    154264.86    157554.83 
  393400    1413.5672      6645301    6724.9433    48.731617    2.3577398    154142.67    157488.25 
  393500     1337.424    6642831.8    6724.9433    48.731617    2.3577398    154112.74     157278.1 
  393600    1351.3959      6639924    6724.9433    48.731617    2.3577398    154036.31    157234.75 
  393700    1384.5873    6642565.9    6724.9433    48.731617    2.3577398    154088.33    157365.32 
  393800     1473.952      6638596    6724.9433    48.731617    2.3577398    153955.73    157444.23 
  393900    1422.2218    6642911.4    6724.9433    48.731617    2.3577398    154082.22    157448.28 
  394000    1398.5606    6643619.3    6724.9433    48.731617    2.3577398    154108.08    157418.14 
  394100    1410.0692    6641401.5    6724.9433    48.731617    2.3577398    154049.64    157386.94 
  394200    1378.1243    6640233.4    6724.9433    48.731617    2.3577398    154034.23    157295.92 
  394300    1407.5786    6635951.7    6724.9433    48.731617    2.3577398    153917.44    157248.85 
  394400    1429.3156    6639409.9    6724.9433    48.731617    2.3577398    153995.03    157377.89 
  394500    1412.1161    6648269.1    6724.9433    48.731617    2.3577398    154215.75    157557.89 
  394600    1417.2417    6647555.4    6724.9433    48.731617    2.3577398    154197.92    157552.19 
  394700    1434.8191    6641763.4    6724.9433    48.731617    2.3577398    154049.31    157445.19 
  394800    1356.9713    6642834.6    6724.9433    48.731617    2.3577398    154105.47     157317.1 
  394900    1338.6121    6644083.5    6724.9433    48.731617    2.3577398     154143.6    157311.78 
  395000    1401.0032    6640979.5    6724.9433    48.731617    2.3577398    154043.51    157359.36 
  395100    1415.1664    6643450.6    6724.9433    48.731617    2.3577398    154098.88    157448.24 
  395200    1380.7688    6649327.3    6724.9433    48.731617    2.3577398    154253.56    157521.51 
  395300    1419.1329    6646620.3    6724.9433    48.731617    2.3577398    154173.85     157532.6 
  395400    1377.3837    6643652.3    6724.9433    48.731617    2.3577398    154118.24    157378.19 
  395500    1356.7322    6638889.1    6724.9433    48.731617    2.3577398    154010.12    157221.18 
  395600    1348.4645    6640865.7    6724.9433    48.731617    2.3577398    154061.52    157253.02 
  395700    1451.3662    6642081.4    6724.9433    48.731617    2.3577398    154049.96       157485 
  395800    1455.2906      6644588    6724.9433    48.731617    2.3577398    154110.57     157554.9 
  395900    1449.3987    6641996.8    6724.9433    48.731617    2.3577398    154048.84    157479.22 
  396000    1365.1924    6643853.9    6724.9433    48.731617    2.3577398    154127.31     157358.4 
  396100    1412.6199    6636477.8    6724.9433    48.731617    2.3577398    153929.56    157272.89 
  396200    1367.7936    6641311.2    6724.9433    48.731617    2.3577398    154064.43    157301.68 
  396300    1451.5649    6644359.7    6724.9433    48.731617    2.3577398    154106.51    157542.02 
  396400    1455.5766    6646620.8    6724.9433    48.731617    2.3577398    154159.29     157604.3 
  396500    1401.3605    6645375.8    6724.9433    48.731617    2.3577398    154149.21     157465.9 
  396600    1368.4956    6641569.1    6724.9433    48.731617    2.3577398    154069.87    157308.77 
  396700    1329.9524      6644498    6724.9433    48.731617    2.3577398    154157.32       157305 
  396800    1443.9274    6638482.2    6724.9433    48.731617    2.3577398    153965.63    157383.06 
  396900    1404.4669    6643795.6    6724.9433    48.731617    2.3577398    154110.21    157434.26 
  397000    1450.4197    6640691.9    6724.9433    48.731617    2.3577398    154017.82    157450.62 
  397100    1378.8717    6645710.5    6724.9433    48.731617    2.3577398    154166.38    157429.84 
  397200    1398.1793    6643576.3    6724.9433    48.731617    2.3577398    154105.52    157414.68 
  397300    1418.0485    6641832.8    6724.9433    48.731617    2.3577398    154058.22    157414.41 
  397400    1368.5525    6645741.3    6724.9433    48.731617    2.3577398    154172.07    157411.11 
  397500    1384.8364    6644675.8    6724.9433    48.731617    2.3577398    154139.73    157417.31 
  397600    1393.3265    6643825.7    6724.9433    48.731617    2.3577398    154114.25    157411.92 
  397700    1427.6641    6642141.1    6724.9433    48.731617    2.3577398    154062.83    157441.78 
  397800    1410.1288    6646940.3    6724.9433    48.731617    2.3577398    154185.53    157522.97 
  397900    1466.3581    6646045.8    6724.9433    48.731617    2.3577398     154141.4    157611.93 
  398000    1442.4767    6644269.7    6724.9433    48.731617    2.3577398    154106.22    157520.22 
  398100    1394.8467    6640048.1    6724.9433    48.731617    2.3577398    154022.92    157324.19 
  398200     1377.748    6639314.8    6724.9433    48.731617    2.3577398    154012.68    157273.48 
  398300    1387.8883    6642212.1    6724.9433    48.731617    2.3577398    154077.02    157361.82 
  398400    1425.3109    6646162.5    6724.9433    48.731617    2.3577398    154161.14    157534.52 
  398500    1356.6375    6652245.4    6724.9433    48.731617    2.3577398    154333.87    157544.71 
  398600    1384.8118    6646842.5    6724.9433    48.731617    2.3577398    154191.85    157469.37 
  398700    1345.7987    6645440.3    6724.9433    48.731617    2.3577398    154173.63    157358.82 
  398800    1330.2251    6643945.5    6724.9433    48.731617    2.3577398    154145.29    157293.62 
  398900    1379.6577    6640977.9    6724.9433    48.731617    2.3577398     154051.7    157317.02 
  399000    1435.8348    6645635.6    6724.9433    48.731617    2.3577398    154142.22     157540.5 
  399100    1454.2376    6647502.5    6724.9433    48.731617    2.3577398     154180.8    157622.64 
  399200    1433.7659    6643618.1    6724.9433    48.731617    2.3577398    154095.67    157489.06 
  399300    1406.9849    6639391.8    6724.9433    48.731617    2.3577398    154001.86    157331.86 
  399400    1401.8943    6640029.5    6724.9433    48.731617    2.3577398    154020.61    157338.56 
  399500     1354.258    6645810.8    6724.9433    48.731617    2.3577398    154180.24    157385.44 
  399600    1401.3557    6645495.7    6724.9433    48.731617    2.3577398    154152.99    157469.66 
  399700    1438.3128    6650077.4    6724.9433    48.731617    2.3577398    154248.59    157652.73 
  399800    1488.7366      6652162    6724.9433    48.731617    2.3577398    154279.99    157803.48 
  399900    1443.9849    6646208.5    6724.9433    48.731617    2.3577398    154153.84    157571.41 
  400000    1401.2099    6643102.8    6724.9433    48.731617    2.3577398    154094.61    157410.94 
  400100    1377.5734    6643516.1    6724.9433    48.731617    2.3577398    154114.14    157374.53 
Loop time of 336.33 on 1 procs for 400000 steps with 795 atoms

Performance: 25.689 ns/day, 0.934 hours/ns, 1189.307 timesteps/s
99.8% CPU use with 1 MPI tasks x no OpenMP threads

MPI task timing breakdown:
Section |  min time  |  avg time  |  max time  |%varavg| %total
---------------------------------------------------------------
Pair    | 288.96     | 288.96     | 288.96     |   0.0 | 85.92
Neigh   | 21.805     | 21.805     | 21.805     |   0.0 |  6.48
Comm    | 14.762     | 14.762     | 14.762     |   0.0 |  4.39
Output  | 1.3867     | 1.3867     | 1.3867     |   0.0 |  0.41
Modify  | 6.2762     | 6.2762     | 6.2762     |   0.0 |  1.87
Other   |            | 3.141      |            |       |  0.93

Nlocal:            795 ave         795 max         795 min
Histogram: 1 0 0 0 0 0 0 0 0 0
Nghost:           6205 ave        6205 max        6205 min
Histogram: 1 0 0 0 0 0 0 0 0 0
Neighs:          53264 ave       53264 max       53264 min
Histogram: 1 0 0 0 0 0 0 0 0 0

Total # of neighbors = 53264
Ave neighs/atom = 66.998742
Neighbor list builds = 13670
Dangerous builds = 37

write_data graphene_single_layer_LJ_795C_after_temp_1400K_nv.data ### MODIFY FILE NAME ###
System init for write_data ...
  generated 0 of 0 mixed pair_coeff terms from geometric mixing rule
Total wall time: 0:05:37
