LAMMPS data file via write_data, version 14 Dec 2021, timestep = 400100

795 atoms
1 atom types

-1.4464652271649892 47.2851520035199 xlo xhi
-1.4423034203099756 47.149101951258686 ylo yhi
-1.42 1.42 zlo zhi

Masses

1 12.0107

Pair Coeffs # lj/cut

1 0.066047 3.4

Atoms # charge

43 1 6.507344965683837e-06 -0.6469737994974448 -0.33017416310015607 -0.8864351011323426 1 0 0
3 1 -1.6454605160365343e-06 1.0177618309120378 -0.4506293475087983 0.4571659066583413 0 0 0
44 1 2.8553423905702813e-06 -0.3784859540423114 1.392622374834288 0.5224257737824578 0 0 -1
47 1 5.032408626121088e-06 1.2683205533763722 1.2293580814761726 -0.9585585741061716 0 0 0
48 1 2.6412559963120974e-06 2.6858139382068766 -0.6376788064476867 -1.0248624284476462 0 0 0
7 1 -4.407841986193983e-06 4.350892902723156 -0.5279777082736542 0.3383902887690808 0 0 0
91 1 -4.84789972124422e-08 2.995859237902805 1.06985036967275 0.404558033185072 0 0 0
49 1 -2.6749744519577456e-06 5.855163153308249 -0.007704842074894438 -1.1437764650812001 0 0 0
50 1 -5.234101525336543e-06 7.533566459734051 0.034101858401064084 0.20523199611247797 0 0 0
94 1 5.106982386697545e-06 5.243513665979877 1.7580838538934944 0.316517697901386 0 0 0
95 1 -1.35058868355048e-06 7.0669726741550605 1.79710547729376 -1.1901808557933276 0 0 0
10 1 -1.1187687319613726e-07 9.229652395633387 0.01210223637214881 -1.2652233722344142 0 0 1
55 1 5.370716421843058e-06 10.980222706604406 0.039602446682858915 0.07398768123621857 0 0 0
54 1 -3.1140306009369567e-06 10.709573301386218 1.7269259173964293 -1.349820622414804 0 0 1
52 1 -6.204743557489123e-07 8.913824278692852 1.7927059172635171 0.17586926694784125 0 0 0
12 1 3.5727842019606104e-07 12.656727987081512 0.028331180055944732 -1.3791899748862708 0 0 1
13 1 -9.6901633842017e-07 14.381269830681106 0.023181826206001788 -0.05281778009902638 0 0 0
56 1 -2.2218362300541195e-06 12.524897969099689 1.765188690357197 0.006121113444806295 0 0 -1
16 1 8.470898384405068e-07 16.07795636665882 0.0699153855761156 1.3275046373762982 0 0 -1
17 1 -8.029953921101507e-07 17.617551932989812 0.6263279543574308 -0.11048841115940627 0 0 0
19 1 -4.256123347694263e-06 18.98191732996046 -0.9409608880800071 -0.10611672003080315 0 0 0
64 1 -2.157821382277325e-06 19.264853686340093 0.7236342884993145 1.2337534014259968 0 0 -1
20 1 6.87592597539699e-07 20.673741276635152 -1.0296174761369628 1.2613371503829163 0 0 -1
22 1 3.338706480442155e-06 20.894529785751594 0.7071573506106876 -0.1887504957455875 0 0 0
68 1 -8.489511226089652e-07 22.524386955530236 0.47272699650657546 1.2693591661487569 0 0 -1
25 1 -1.7184924775287547e-06 24.137663612517304 -0.1371940298426782 -0.1840311217879332 0 0 0
21 1 -8.229873684068023e-07 22.31791647845458 -1.3276876958557593 -0.18167202909127314 0 0 1
69 1 3.817272522313453e-06 24.473015443711933 1.4232783472096588 1.2440319059238605 0 0 0
26 1 1.8182961253956909e-06 26.140578497859504 1.5706464333954078 -0.2109511948299385 0 0 -1
788 1 1.7397562660365073e-06 25.893769200088926 -0.24248917918073842 1.2264585582735352 0 1 -1
789 1 -3.204453992711187e-07 27.55240294750839 -0.6279951947970696 -0.15802987139869004 0 1 -1
28 1 1.7397371130101202e-06 27.80706176128512 0.9727643239890589 1.2317708775304765 0 0 -1
29 1 -3.2046378869998726e-07 29.261781016585257 -0.8871575724067008 1.2219073887415268 0 0 -1
30 1 3.630532332821179e-07 29.54758608673644 0.7843703132017774 -0.21093231989080466 0 0 0
32 1 2.8492942310276437e-06 30.923192338720064 -1.0171923427705398 -0.2382661856898223 0 0 0
31 1 -8.026204773366186e-06 31.242730240857565 0.6721109480278588 1.1861520859581147 0 0 -1
33 1 1.4800198254727448e-06 32.89208225604203 0.5452070752897374 -0.2628970145672813 0 0 0
791 1 1.4800351081228902e-06 32.69279686217183 -1.1887179867075588 1.1232004286794182 0 1 0
34 1 3.681922980496022e-06 34.56957536453681 0.3699339783962738 1.1732646465223084 0 0 -1
35 1 -4.496563879734239e-06 36.21651213619591 -0.2737119230348041 -0.5489405024625292 0 0 0
77 1 1.1800236812777032e-05 36.51556405934169 1.421223055396851 0.701543115620602 0 0 -1
37 1 -7.576143574716809e-07 37.94665849913086 -0.4843158770680082 0.801448860596546 0 0 0
38 1 1.1429208632549037e-05 39.59859144525054 -0.6564327014759506 -0.6483476535009787 0 0 0
79 1 -1.3982244404658895e-06 38.12481073894513 1.1884678978616108 -0.7346066591814088 0 0 0
78 1 7.852419301596081e-08 39.81142114841724 1.0900827862470548 0.6641575234664522 0 0 0
80 1 -1.527764227202133e-05 41.520688250906204 0.9513659114134304 -0.8368489250829776 0 0 1
39 1 1.4728320913197368e-05 43.14204508771254 0.6981168498128901 0.5969586972798155 0 0 0
40 1 -1.0343673347359972e-05 41.281118771038656 -0.8060524539266041 0.6625828763825868 0 0 -1
41 1 -1.0884603841299079e-06 42.92161846269004 -1.0744806389764752 -0.8068326852318699 0 0 1
83 1 -1.7015348453275347e-06 44.84491468888867 0.26492234483583177 -0.8162420786547545 0 0 0
84 1 -1.3437400099722274e-05 46.46003694816022 -0.104830082668596 0.5245366707081827 0 0 -1
85 1 -4.367485910809765e-07 46.657347064786244 1.607382433569628 -0.9088878939359967 0 0 0
45 1 -1.4777070798457914e-06 -0.08556834717851246 3.0214477880646724 -0.9031123012157277 0 0 0
88 1 -1.628353791329612e-06 0.30841009818128984 4.662802895710429 0.5198442394233677 0 0 0
46 1 -3.5029372309064444e-07 1.661159335685904 2.860905709375546 0.4534521719402976 0 0 0
87 1 -3.6338294026744267e-06 47.26829278682813 4.768937318186622 -0.8714526446267169 -1 0 0
92 1 5.958425471006001e-07 3.579424413650827 2.554278055450549 -0.9871146708933229 0 0 0
89 1 2.3637871508080943e-06 2.0631816780150616 4.453439256093812 -0.9383456116426444 0 0 0
90 1 1.9220584121446005e-06 3.784399781438373 4.176252499303897 0.42367799002161094 0 0 0
93 1 -4.599742475783208e-06 7.1517101776490595 3.482375428927825 0.3204516032464841 0 0 -1
134 1 -2.889407649177278e-06 5.4098590800574 3.7037662592285083 -1.0295391862215437 0 0 0
53 1 5.970509917505029e-07 10.741865030581055 3.4242682498371693 0.08626654408465634 0 0 0
96 1 2.069901114093442e-06 8.939008762184137 3.4300212614651624 -1.2972662637267258 0 0 0
14 1 9.677809792441039e-07 14.219480115342131 1.7326947075299932 1.375094948925354 0 0 -1
98 1 6.5080768866451755e-06 12.462225171002451 3.5112405205850887 1.4145431119260181 0 0 -1
57 1 2.6390079944302314e-06 14.134477040624946 3.4645521167056796 -0.08974869048706959 0 0 0
15 1 -2.521027726819225e-06 15.925164565397958 1.9380170944672366 -0.09673101563857972 0 0 0
59 1 4.53003233982785e-06 17.61239674824995 2.304286064210958 1.3236196549745298 0 0 -1
58 1 -4.10119438074702e-06 15.820842424727628 3.6895916600139556 1.3178819789256684 0 0 -1
60 1 -2.7068238915989307e-06 17.509498114871263 3.930137997325636 -0.12376161112493048 0 0 0
18 1 1.3402800272607762e-06 19.503366712153234 2.409749654056529 -0.14888053373757365 0 0 -1
61 1 3.8555667773443325e-06 19.21808145513161 4.054176477521076 1.3096324414956135 0 0 -1
63 1 3.970847831075153e-06 20.9702562210506 4.098899507585514 -0.14226424317608644 0 0 0
65 1 7.298529403551579e-06 21.31314114212297 2.376856365986948 1.2522651383176813 0 0 -1
23 1 -4.639759081735695e-06 23.091809688162268 2.500862288579378 -0.1811774112448415 0 0 0
66 1 -7.749273158767778e-06 22.70801085832362 4.302062428599987 1.2743385485722387 0 0 0
110 1 7.832500914121965e-06 24.3636236420841 4.9374405165672295 -0.14306891479499795 0 0 0
67 1 4.948735921349312e-06 24.7550502189481 3.4164495329720554 1.2707587695710019 0 0 -1
111 1 -5.163963487285483e-06 26.41308344899659 3.701753696085731 -0.17825020779862522 0 0 0
27 1 -6.606147086175851e-06 28.21186208902259 2.485184710657153 -0.17373534160787707 0 0 0
72 1 -2.7798396259812175e-06 29.85436247622192 2.5035459167418637 1.2911094948494228 0 0 -1
70 1 -1.0809212026632875e-05 28.031477764846617 4.016507759461863 1.2492600288672278 0 0 -1
71 1 1.1037688934220635e-05 29.764184025893794 4.168748579659433 -0.14936967328768547 0 0 0
115 1 -1.1760918529842013e-05 31.518574118151523 4.157948688047894 1.2644652517231942 0 0 -1
73 1 4.2549379474648985e-06 31.45889934074857 2.393933191940076 -0.1762767461961566 0 0 0
74 1 -9.493595193491022e-06 33.23099505169456 4.048732529846318 -0.18992932947253865 0 0 0
75 1 1.1416575511596916e-05 33.119109217010596 2.2498982226719164 1.1874746569145114 0 0 -1
76 1 -5.337457492711473e-06 34.755789123809734 2.1645087499356115 -0.28285183806012865 0 0 0
119 1 -1.5636237316180024e-05 36.679277556380725 3.0934477171169923 -0.8128457353881322 0 0 1
118 1 1.045748658303619e-05 34.88724142203198 4.015957221479796 1.2572705232147685 0 0 -1
120 1 2.2182920981141108e-05 36.70097887029389 4.820679493129997 0.42457488285069617 0 0 0
122 1 -2.4842181900672222e-06 38.36266715944143 2.9182306951273467 0.56017714894412 0 0 -1
123 1 -4.540340449596392e-06 40.02559725358515 2.852301647740214 -0.8727550610068071 0 0 0
121 1 -1.3499153935815633e-05 38.4139379611977 4.6944098453161756 -0.9569308074072851 0 0 0
165 1 1.2409915433365948e-05 40.06716077897358 4.588808974107362 0.4810313508403216 0 0 0
81 1 9.510355920283597e-06 41.66319505012973 2.6951245786070404 0.5515221783822591 0 0 -1
82 1 1.601211381881129e-06 43.32596876521229 2.444188238063443 -0.8556385723285902 0 0 0
124 1 4.859489400585448e-06 43.474032317086426 4.23103321653665 0.5378125198102998 0 0 0
166 1 -1.471923652868884e-05 41.787523572638364 4.458673876983287 -0.9325256548577294 0 0 0
126 1 1.5281971620581536e-06 45.04307891134069 1.9787164259609091 0.527167276716308 0 0 0
86 1 4.964630065204534e-06 46.86855655532803 3.220633558416742 0.5128739431593454 0 0 -1
127 1 -5.827020192229748e-06 45.20074551331829 3.62046973772996 -0.8954642099117344 0 0 0
130 1 -7.28280029740902e-07 0.6859630794023668 6.287544485990152 -0.8690352843486395 0 0 0
129 1 3.957651669855844e-06 -0.9731479785037827 6.459375129079298 0.553196942930776 1 0 0
131 1 -1.9599553546106874e-06 1.0739003962708453 7.947378261383991 0.5686820587907475 0 0 0
172 1 -1.3510743214900645e-06 -0.713410293794018 8.153834223650271 -0.9065636000989952 1 0 0
132 1 2.2414112740981595e-06 2.3786957877427897 6.0825859551631 0.49737022848009527 0 0 -1
135 1 -4.4746152032953956e-07 4.030664433072715 5.840706808960789 -0.9396329032169898 0 0 0
133 1 7.928910580115578e-07 2.8383162430021005 7.7126531258416575 -0.8782147313779471 0 0 0
178 1 -3.1315331786019307e-07 4.577196067038602 7.472889679648471 0.5572297985287182 0 0 -1
137 1 9.64407384923538e-07 7.2523066879619416 5.211104093466241 -1.1144387142338688 0 0 0
136 1 -2.4186032838088845e-06 5.6602249097119035 5.437147165429933 0.4327376563734006 0 0 0
180 1 2.645971139816905e-06 6.342576221567784 7.2081312083593385 -0.7457721561973422 0 0 0
139 1 4.672581832038114e-06 8.100975942061343 7.0658368549256245 0.8035447633999001 0 0 0
138 1 -3.171804171427095e-06 8.903968702060638 5.088941759202728 0.17411827706095592 0 0 0
97 1 -5.416110109984773e-06 10.645061809517562 5.128726991913617 -1.4137750320503208 0 0 0
184 1 2.086401045951758e-06 9.9384492674898 6.939804655004616 -0.44881101875814583 0 0 0
99 1 -2.806624142287495e-06 13.928616926056641 5.304199896388763 1.2654825206320766 0 0 -1
141 1 4.749552535397716e-06 12.312369394620529 5.31633469568903 -0.08823755957675186 0 0 0
140 1 -5.4247295348669455e-06 11.830150880009278 7.0136203312447325 1.1422292269994525 0 0 0
100 1 2.384945784132675e-06 13.641004704935385 7.058897425548428 -0.25237769885629485 0 0 0
102 1 6.240861775926032e-06 15.580859353194734 5.408539678110385 -0.14959823775588482 0 0 0
103 1 -3.829760438292529e-06 17.33330840218692 5.614801650503445 1.2758931808401606 0 0 -1
101 1 -8.71190132512023e-06 15.31999330784546 7.180153820509317 1.1667150097671812 0 0 -1
104 1 5.228196439589772e-06 17.10342213347576 7.276525794504689 -0.18009335765047466 0 0 0
106 1 6.109590571345969e-06 19.065092931587312 5.746517074876976 -0.12533733864863586 0 0 0
62 1 -6.651941514397575e-06 20.775629824528963 5.770962332926538 1.2144031474711112 0 0 -1
105 1 -8.688346054705476e-06 18.834560285937513 7.402043273656189 1.2524744712848948 0 0 -1
149 1 8.091145119112908e-06 20.610637668526525 7.490317785231846 -0.19078060451238596 0 0 0
107 1 -4.4797836801710456e-06 22.510776260768253 6.056954647324526 -0.18247392680369384 0 0 0
108 1 6.1499061763947704e-06 22.28018809633458 7.753820404710952 1.24251962431404 0 0 0
109 1 -9.849166588318803e-06 24.206364686352256 6.5707468884956395 1.2755687301067808 0 0 -1
151 1 5.099029288711809e-06 24.029533454671313 8.189143675954119 -0.16145229145913303 0 0 0
112 1 3.894041320499919e-06 26.1479542883503 5.334699240010382 1.277304650256106 0 0 -1
153 1 1.1228725468791223e-05 25.969746996310505 6.966059493586492 -0.10411400591166939 0 0 0
154 1 -1.0804278021823988e-05 27.663868290856197 7.3216675656469015 1.2906301371536628 0 0 0
113 1 -9.721723752097178e-06 27.84271059671456 5.658853017166133 -0.14366614727057778 0 0 0
114 1 1.5978017248043097e-05 29.587738639845846 5.807639197170184 1.3181751913685775 0 0 -1
156 1 -7.388983060116483e-06 29.444032754279608 7.4822718060178595 -0.05895321486769335 0 0 0
157 1 1.2265084072392296e-05 31.226642126175715 7.527193996750878 1.3658661162154766 0 0 0
116 1 1.4050834573078874e-05 31.31083224249728 5.8386108475462715 -0.08069153165757903 0 0 0
158 1 -1.8796069519558256e-05 32.941951413927875 7.582559279932911 0.0017733084884595533 0 0 0
117 1 -7.662912586907378e-06 33.05460317154367 5.863360498670672 1.405027553772636 0 0 -1
162 1 -1.1156923740360258e-05 36.5110227978381 6.460923432927486 -1.1267798649766918 0 0 0
161 1 6.85108903616255e-06 34.79608928306848 5.873756127437941 0.052296864471986844 0 0 0
160 1 -1.7989782252980646e-05 34.60762421346314 7.706758058363383 -1.3083350546042283 0 0 0
163 1 9.857506581500974e-06 36.327291239979736 8.128198899867877 0.25533718301807046 0 0 0
164 1 -1.0521787255704518e-05 38.20832851588427 6.434700700688886 0.3672619266070257 0 0 0
167 1 6.326471567161263e-06 39.96978545776213 6.2843443621825665 -0.9992820713706875 0 0 0
207 1 -8.336872023131936e-06 39.74138907784017 8.057621821800415 0.3412560089565321 0 0 0
208 1 8.230396303508802e-06 37.99498475210189 8.14089841177901 -1.1349708253444115 0 0 1
125 1 2.1177937479105458e-06 43.70016308311494 6.086287718018513 -0.9198487891229868 0 0 1
168 1 -5.83482290798798e-06 41.75668023879544 6.165751508232509 0.48143182916210386 0 0 0
212 1 -4.325020573764382e-07 41.46510859908097 7.975742037142804 -1.0202549033261694 0 0 0
169 1 1.2000808408962893e-05 43.106103062827785 7.894863893499663 0.4175937119758145 0 0 1
128 1 -4.145500887984405e-06 45.43975504154103 5.2614144524676485 0.5415775432076032 0 0 0
170 1 -4.998999570869633e-06 46.03908792254353 6.670035341906811 -0.8906605584262755 0 0 0
174 1 -1.8349000416480188e-06 1.1364463846755464 9.606690455744415 -0.8600871355104662 0 0 0
173 1 -7.185635002016078e-07 -0.6136650523397799 9.770957469872851 0.5021027038305482 0 0 0
216 1 -2.082268042352675e-06 1.1467924574114123 11.258673717055617 0.5374658361220379 0 0 0
215 1 2.2122227345128254e-06 -0.6326367178951816 11.488891913551829 -0.9541115404560454 1 0 0
176 1 1.124581316021278e-06 2.9044589550416084 9.413603718552691 0.552259324091704 0 0 0
177 1 -1.0543537522222923e-07 4.641490185025167 9.161510980354917 -0.8198686536046229 0 0 0
219 1 4.488291766302499e-07 4.681390496972732 10.87609050361698 0.6761342610075555 0 0 0
175 1 2.933592853769651e-06 2.918173586177476 11.09792181633767 -0.8822675549294332 0 0 0
179 1 -1.4129078338628864e-06 6.4029924251206864 8.913573006901284 0.7621658038373574 0 0 0
220 1 1.4862267940923823e-06 6.345760225556844 10.64550847526649 -0.6791672984063377 0 0 0
181 1 -3.380396684501963e-06 8.194431754975211 8.825328299468856 -0.5846597193283898 0 0 1
223 1 1.4676399040930432e-06 8.086219775851548 10.547142246716588 0.8577326314508876 0 0 -1
182 1 3.0483762351388166e-06 9.960488023325128 8.642389274925419 0.9876699061260364 0 0 0
224 1 -2.196009496607809e-06 9.82908247560944 10.415205424697728 -0.4976422917911214 0 0 0
183 1 -6.707437624278723e-07 11.622352163143278 10.442562776058455 1.033967404322471 0 0 -1
143 1 2.920738629515196e-06 11.629877150253584 8.679665710341833 -0.36927217898051956 0 0 0
142 1 -2.6910775987529223e-06 13.433411041046822 8.734627050554343 1.1216526922482128 0 0 -1
185 1 -1.1310800183197967e-06 13.349839970647881 10.418439924978644 -0.3701122021942731 0 0 0
186 1 4.996106189349148e-06 15.16244612087126 10.53338429546606 1.1201719144000717 0 0 -1
144 1 -9.393027862875103e-06 15.209099305778343 8.828783862886468 -0.2864189665519965 0 0 0
145 1 5.901223464763183e-06 17.00438587207198 8.955045330853629 1.2505201737401823 0 0 0
188 1 5.709697715794437e-06 16.83278091505774 10.664522443515741 -0.24193738553526703 0 0 0
146 1 -2.523787464021876e-06 18.724091366316173 9.091079165814975 -0.1650863283552551 0 0 0
147 1 6.072698298401069e-06 18.603954810878605 10.794160580649393 1.1869460896943698 0 0 -1
148 1 -9.533344803490384e-06 20.437835458864548 9.177244804665081 1.2330312318026626 0 0 0
192 1 1.0098751125182936e-05 20.332046363928608 10.86360782288011 -0.22871516656243082 0 0 0
193 1 -1.0152646107285113e-05 22.008105044706056 11.180587449336484 1.2338518564401262 0 0 0
150 1 -8.146226118943556e-06 22.141077831259324 9.498136806427892 -0.22283302125211796 0 0 0
194 1 5.267153594834539e-06 23.88232954699306 9.891705397441358 1.2139059633356568 0 0 0
152 1 -7.912356626595118e-06 25.801928992220144 8.667022711259857 1.2957164989530947 0 0 -1
196 1 1.174023678923719e-05 25.665374710202208 10.337836470426666 -0.12883041250924449 0 0 -1
240 1 -7.555711921777841e-06 27.365917129684608 10.628991369983101 1.3845164813708482 0 0 -1
197 1 -1.0222693753898782e-05 27.48016306373634 8.95611352843311 -0.07963045433833933 0 0 0
155 1 7.653156025681784e-06 29.209122229028107 9.112192441844769 1.349272753730186 0 0 -1
198 1 9.696763457377189e-06 29.099686982540423 10.751044531483904 -0.05344373581860541 0 0 0
201 1 -1.256623196167761e-05 30.867686079608426 11.010606320080251 -1.4113955565718512 0 0 0
200 1 8.313624850812829e-06 30.93978498505583 9.264345444618883 0.005146385027234973 0 0 0
159 1 1.779907237107331e-05 32.720410696934984 9.316887110693035 -1.3462860749273102 0 0 1
202 1 1.0382792576681121e-05 32.60538578700166 10.981559373659012 0.105386030165413 0 0 0
247 1 1.2029830659190943e-05 34.34079954332555 11.33648739805648 -1.3067963807462333 0 0 0
203 1 -1.4548803873422333e-05 34.455619591603686 9.49637698950193 0.1110708461856753 0 0 0
204 1 1.7925715275535214e-05 36.20003876981372 9.845230609013875 -1.2125402050493097 0 0 1
205 1 -1.2648598712451664e-05 37.91162495045195 9.846367646824516 0.2608835558701764 0 0 -1
206 1 1.7043828780934078e-05 39.63322472620023 9.778652193524369 -1.08309257754893 0 0 1
209 1 -8.51960451919015e-06 41.31385081570537 9.687615499700224 0.3807574873738969 0 0 0
210 1 1.1746370120357952e-05 42.97433403891096 9.712963047282628 -0.9986013251576791 0 0 1
252 1 -1.226646277561333e-05 41.177523809140574 11.4615616860191 -1.0813260118907908 0 0 1
255 1 1.1040912935432468e-05 42.86279166850801 11.502719868430814 0.39869599099543973 0 0 0
213 1 -3.360589199863373e-06 44.66400032743296 8.285746726022522 -0.9665180779666354 0 0 0
171 1 4.041478759247291e-06 46.311225331413105 8.329974593507538 0.4586171167248791 0 0 0
211 1 -3.120238984410939e-06 44.63241387656612 9.919486515294457 0.43063897243714483 0 0 0
214 1 7.944690695906031e-07 46.404674997772254 9.91290599508 -0.9207205700778337 0 0 0
218 1 4.92092762678642e-06 1.159533879621445 12.969352415570247 -0.863540992494795 0 0 0
258 1 4.281032782216254e-06 -0.5504075313371862 13.138197412549601 0.4872286035589243 1 0 0
261 1 4.433324939281946e-06 1.1824658958780643 14.656623211442069 0.5938840544062881 0 0 0
221 1 -1.3084553137227006e-06 4.676075211287729 12.59206759249105 -0.6922279896715576 0 0 0
262 1 -3.908590435613979e-07 2.9026756893807013 12.820030130763831 0.6320186647598495 0 0 0
265 1 9.767746241423625e-07 4.639728673479181 14.3180153053961 0.7533102010927488 0 0 0
263 1 1.781336857964444e-06 2.8903815430278863 14.440535004737322 -0.7322998765353508 0 0 0
222 1 -7.562481204245741e-07 6.394413190301666 12.440350704360133 0.7317118314965394 0 0 -1
266 1 3.52060613301175e-09 6.359326101666137 14.139152208955428 -0.6306602756930374 0 0 0
225 1 6.751570726243328e-07 8.18911557118563 12.27606252227147 -0.5402819343325306 0 0 0
267 1 -7.185341769772036e-07 8.121315951290237 14.005212505537205 0.9060079274859488 0 0 -1
226 1 -6.164705316363817e-08 9.926540825319401 12.122442016803022 0.9291625117593382 0 0 -1
269 1 1.0006883347513096e-06 9.876495272850146 13.847555617955972 -0.42098055599024153 0 0 0
270 1 7.839131809378452e-07 11.534728413242645 13.885268147281911 1.0654308278503444 0 0 -1
227 1 1.296947658935288e-06 11.595290778161358 12.153534408584006 -0.3983793949872135 0 0 0
228 1 -3.865449093233553e-06 13.269634059858893 12.144068162267656 1.0598434004888966 0 0 0
229 1 2.5335091656530917e-06 13.214650305853235 13.89859142126719 -0.33249115529303525 0 0 0
230 1 -1.0913101479506637e-06 14.897751132199145 13.911153480666302 1.085558199990591 0 0 0
231 1 3.7909114902756613e-06 14.983389354973035 12.21241451546159 -0.3502750189689153 0 0 0
187 1 -5.282279484597474e-06 16.635323532886474 12.333975885487174 1.132151921863192 0 0 0
232 1 -5.402636360681001e-06 16.57033220492101 14.089329324245837 -0.2848497347195637 0 0 0
189 1 -2.9563077020774986e-06 18.39947391482021 12.478792653815113 -0.2413501053125377 0 0 0
275 1 -3.5565649229921115e-06 18.23264356468629 14.101082000800838 1.1664559649459183 0 0 0
190 1 6.5076099096117446e-06 20.13744812755967 12.51181283886455 1.1613678464891954 0 0 0
233 1 6.0004059322729675e-06 19.997220365838302 14.074405462510253 -0.21689902896204044 0 0 0
195 1 -5.2631467248320796e-06 23.792659676403268 11.568281617276972 -0.1939897291133828 0 0 0
191 1 -8.824551831161653e-06 21.903482695867996 12.860603968341243 -0.23254838701470745 0 0 0
236 1 -9.864509984823522e-06 23.639826737178126 13.152802559499547 1.1951998130332806 0 0 0
235 1 9.419700591317692e-06 21.645923194022703 14.556132096938457 1.2247732683556753 0 0 -1
238 1 -5.351345596385504e-06 23.30343669122656 14.66609647092552 -0.1551097257401625 0 0 0
239 1 6.057475608445273e-06 25.594519293619854 11.990382230256262 1.2563825430235729 0 0 -1
282 1 3.704832386680623e-06 25.270215075820783 13.674188379224525 -0.1644480807976126 0 0 0
241 1 4.877279256070011e-06 27.349411595314592 12.316540815997373 -0.042374386366747376 0 0 0
242 1 -6.132363372234051e-06 26.96612255462744 13.95206949183258 1.2705354632130168 0 0 -1
243 1 1.0756163076185155e-05 28.922499569699774 14.040569073037771 -0.026403851571071713 0 0 0
199 1 -7.993967287074633e-06 29.02321828743018 12.41862006638593 1.3723763766658619 0 0 -1
244 1 -8.229116116260926e-06 30.73173542957133 12.735194303238938 -0.014162948105344396 0 0 0
285 1 -2.3695452417843432e-06 30.552194646016908 14.462783322799199 -1.398633081962287 0 0 0
286 1 8.361406406851013e-06 32.381606958369 14.323379949055287 0.1276152796672605 0 0 0
245 1 7.253360630773975e-06 32.50173058628757 12.676291597258563 -1.3477929729604559 0 0 1
290 1 6.4016670210803595e-06 34.20353385367923 13.148342795035727 0.08946371507460871 0 0 0
248 1 -1.5740620144900908e-05 36.00708105170429 11.611097348284922 0.12561618283577586 0 0 0
249 1 1.2500802632174624e-05 35.84872991227986 13.324815904909844 -1.3449010122116543 0 0 0
251 1 7.644030488085374e-06 39.46419044770869 11.50812587776321 0.31386650616973427 0 0 0
250 1 -7.900112167918971e-06 37.75045600329701 11.597871123147353 -1.2215845774970064 0 0 1
293 1 -3.879251050373234e-06 37.58682369338142 13.318020752189955 0.15651093868365287 0 0 0
294 1 5.3704073699548105e-06 39.3430993548904 13.194110856730536 -1.1503152916641244 0 0 1
253 1 6.239663912159521e-06 41.10293178311104 13.164365832178014 0.31564828060662636 0 0 0
298 1 2.8773213107263773e-07 42.86576517805857 13.17268449518057 -1.0253501733646768 0 0 1
256 1 -9.10024225393019e-06 44.61186635736373 11.575619643374795 -0.9382366087784118 0 0 1
257 1 3.3503575108811967e-06 46.376872073714324 11.568263802580448 0.48977311872662405 0 0 0
259 1 -1.2791922593125005e-06 46.39186955612847 13.276283325425679 -0.9879543226798435 -1 0 0
299 1 -2.119347632410784e-06 44.65753787131044 13.292209363215305 0.44103470888773944 0 0 0
217 1 -3.2051208879724236e-06 -0.4839936625231475 14.800106841143682 -0.8980579182338356 0 0 1
302 1 -1.7428330055108132e-06 -0.474167190555244 16.488244177652643 0.5103509505405246 0 0 0
304 1 4.794786537851148e-06 1.275585397311572 16.298246150145257 -0.8424874862836033 0 0 1
349 1 3.1731214657215734e-06 1.3867204206880026 18.023125932443364 0.5950858625570066 0 0 0
305 1 -8.69045743367991e-07 3.0440021224721923 16.12377942039305 0.6987597660534944 0 0 0
309 1 -1.2732506599610893e-06 4.7508736082005285 16.019187356988315 -0.6355074943462218 0 0 0
308 1 3.0225276107451182e-06 4.798927799134217 17.7236325609069 0.7882855928832718 0 0 0
264 1 -3.4378471911802877e-06 3.1218273663196654 17.86800750171276 -0.6679875149595603 0 0 0
310 1 -4.1880347721040545e-07 6.447569364754255 15.861016234049144 0.8436604203523762 0 0 0
353 1 5.308198475703629e-07 6.456051872993537 17.612882201494912 -0.5471489862039717 0 0 0
268 1 -1.0121022600562135e-06 8.12256059612081 15.708796770658212 -0.5063083318682485 0 0 0
314 1 5.475961409179275e-07 8.139433515559956 17.467997843674535 0.9461028233167517 0 0 0
313 1 4.142764518239028e-08 9.779354511276892 15.59899433954001 0.985449097464803 0 0 0
273 1 -2.9782527287067206e-06 9.789113563353927 17.38224775861519 -0.4330821801271368 0 0 1
272 1 9.089986451535359e-07 11.485394197235731 15.655455162632432 -0.35207658049434887 0 0 0
315 1 1.6813640917948125e-06 11.519655723566276 17.352815788881966 1.0814233803795015 0 0 -1
271 1 -1.4494498752556928e-06 13.130092022773795 15.63502189314177 1.0741474927101908 0 0 0
317 1 3.3452785733051327e-06 13.205159884748666 17.384772347057982 -0.3316329477205043 0 0 0
274 1 3.893393320124339e-06 14.821815431323717 15.701039476559897 -0.3000721952804112 0 0 0
276 1 3.202399882627771e-06 14.876350204624897 17.47118518198165 1.1669518236268255 0 0 0
277 1 -7.3339060079891105e-06 16.493983959925572 15.880803678060106 1.1077288751433432 0 0 0
321 1 4.904168357279526e-06 16.602781330338647 17.543435732199757 -0.2869494200430041 0 0 1
234 1 -8.689404422113078e-06 18.150744465462875 15.781863849107044 -0.22770221015573472 0 0 1
278 1 8.257208516188053e-06 19.793595703619296 15.704117321851994 1.2179067530244214 0 0 0
322 1 -2.9785687956015994e-06 19.99969837226746 17.306231235609047 -0.2051327260367368 0 0 0
320 1 -4.057089680604975e-06 18.286408772541495 17.491999788979534 1.2116141942482634 0 0 0
237 1 3.97488696659426e-06 21.718429923259464 16.765243950047175 1.1998015801102133 0 0 0
280 1 2.162204405450896e-06 23.40196286443092 16.709540669774334 -0.22275333287467763 0 0 0
279 1 -5.5978289051974994e-06 24.851406889407592 15.605419413840636 1.2939558363480608 0 0 -1
281 1 -3.771915907606338e-06 26.634902988284132 15.619372257223745 -0.10952510919372763 0 0 -1
284 1 1.5407012709106604e-06 27.047864356363775 17.332298633299228 1.275261783947725 0 0 0
326 1 -2.0259126512905956e-06 25.4007044507015 17.56302902124326 -0.16075738031844855 0 0 0
283 1 -3.4226025113701097e-06 28.476786777042275 15.593505329145248 1.3326160425857487 0 0 -1
329 1 3.842122332009534e-06 28.772943305797146 17.156241026076312 -0.09415921111533894 0 0 0
287 1 -8.313181176076989e-06 30.396566504303166 16.61388786179433 1.2935905214406926 0 0 -1
246 1 -6.340659260695158e-06 33.86106749480268 15.232600430387027 -1.3928960027957988 0 0 0
333 1 3.723979385805709e-06 32.031643436893425 16.303419408885848 -0.15447804418708377 0 0 1
288 1 7.951624825176806e-06 32.590148211450796 17.916487610706273 1.3152883043091166 0 0 0
289 1 -6.323796284013472e-06 34.10678800482726 17.063929842266756 -0.03176662831036223 0 0 0
291 1 -8.249564785345331e-06 35.621373862657606 15.122880294657618 0.029868117714704018 0 0 0
292 1 8.778556843093421e-06 35.8606402954507 16.91480060774044 -1.358563784091103 0 0 1
296 1 6.662916873859115e-06 37.39446111381026 15.065961093925921 -1.2826134804443918 0 0 1
295 1 -7.28710567182711e-06 39.25146749809218 14.924294208522413 0.2708198774808271 0 0 1
337 1 1.6802657709855118e-06 37.70906870527385 16.76569540659124 0.15746804862400976 0 0 1
339 1 3.0783126511654824e-06 39.49440379765611 16.585666085249706 -1.1657896803067398 0 0 0
297 1 -2.900467017806496e-06 42.830892521348474 14.891084444280231 0.3515825995752108 0 0 0
254 1 -1.0320609285380256e-06 41.03188122363828 14.84917397686256 -1.1431474244281925 0 0 0
341 1 3.0412088084241784e-06 42.96170535226145 16.559634902179294 -1.0625582273193246 0 0 1
381 1 2.7824431051287624e-06 41.27427227967886 16.576724993139948 0.3210302825887577 0 0 0
300 1 2.712881257138644e-07 44.590479485045385 14.93406358430923 -0.9589346317602605 0 0 1
260 1 -3.3125148356724643e-06 46.40795093671925 14.920374954149384 0.4733634075545092 -1 0 0
342 1 -6.4075980327760185e-06 44.79220172138712 16.53509898158677 0.4428757431523157 0 0 0
301 1 2.0583398447210355e-06 46.567518043007496 16.59184571225995 -0.9689193074524146 0 0 1
303 1 -1.8441888989181865e-06 -0.37010863864071886 18.129067881777633 -0.9171128154260471 0 0 0
348 1 -3.1683368906382237e-06 -0.32792523116855055 19.837885208586574 0.42918044290107543 0 0 0
350 1 -3.6588757291872165e-06 1.4397070234804956 19.66925626680442 -0.7600121638770455 0 0 1
306 1 1.9265272522550614e-06 3.2026319232931124 19.513828009879333 0.7810860702899679 0 0 0
307 1 -3.7022918804585636e-06 4.908781853570304 19.442184907016436 -0.5804668328652348 0 0 0
392 1 4.1838123679485695e-06 4.857337757885404 21.22332407384097 0.8536289025428947 0 0 0
352 1 -2.5689764282729732e-06 6.599671325465925 19.329341476272656 0.9093020736377714 0 0 0
351 1 3.4699889507258663e-06 6.557693814184646 21.09407997748202 -0.4928060671058525 0 0 0
311 1 -1.0863587454196244e-06 8.250154697985208 19.177530263073 -0.44394273362268016 0 0 1