# System definition
read_data graphene_single_layer_x-45_y_45_795_C_nv.data  ### MODIFY FILE NAME ###
Reading data file ...
  orthogonal box = (-1.4464652 -1.4423034 -1.42) to (47.285152 47.149102 1.42)
  1 by 1 by 1 MPI processor grid
  reading atoms ...
  795 atoms
  reading velocities ...
  795 velocities
  read_data CPU = 0.026 seconds
pair_style lj/cut 6
pair_coeff      1 1 0.066047 3.4

# Virtual force wall to keep the cylinder shape
#region myCylinder cylinder z 0. 0. 20.3 -22.079997 505.920003 units box
#fix wall all wall/region myCylinder lj93 1.0 1.0 2.5

# Minimization
timestep 0.25
thermo 100
thermo_style custom step temp press vol lx density pe etotal
dump 2 all custom 1000 graphene_single_layer_LJ_795C_after_temp_1000K_nv.lammpstrj id type x y z ### MODIFY FILE NAME ###
min_style cg
minimize 1.0e-6 1.0e-6 100 1000
WARNING: Using 'neigh_modify every 1 delay 0 check yes' setting during minimization (../min.cpp:187)
  generated 0 of 0 mixed pair_coeff terms from geometric mixing rule
Neighbor list info ...
  update every 1 steps, delay 0 steps, check yes
  max neighbors/atom: 10000, page size: 100000
  master list distance cutoff = 6.4
  ghost atom cutoff = 6.4
  binsize = 3.2, bins = 16 16 1
  1 neighbor lists, perpetual/occasional/extra = 1 0 0
  (1) pair lj/cut, perpetual
      attributes: half, newton on
      pair build: half/bin/atomonly/newton
      stencil: half/bin/3d
      bin: standard
Per MPI rank memory allocation (min/avg/max) = 5.847 | 5.847 | 5.847 Mbytes
Step Temp Press Volume Lx Density PotEng TotEng 
       0          923 3.5764745e+08    6724.9433    48.731617    2.3577398    8739313.6    8741498.1 
     100          923     47792497    6724.9433    48.731617    2.3577398    1156645.3    1158829.8 
Loop time of 0.207294 on 1 procs for 100 steps with 795 atoms

100.0% CPU use with 1 MPI tasks x no OpenMP threads

Minimization stats:
  Stopping criterion = max iterations
  Energy initial, next-to-last, final = 
       8739313.5743934   1166159.30364263   1156645.25969717
  Force two-norm initial, final = 757147.49 41890.076
  Force max component initial, final = 127132.22 10243.229
  Final line search alpha, max atom move = 3.9224736e-06 0.040178794
  Iterations, force evaluations = 100 123

MPI task timing breakdown:
Section |  min time  |  avg time  |  max time  |%varavg| %total
---------------------------------------------------------------
Pair    | 0.14047    | 0.14047    | 0.14047    |   0.0 | 67.76
Neigh   | 0.056462   | 0.056462   | 0.056462   |   0.0 | 27.24
Comm    | 0.0063692  | 0.0063692  | 0.0063692  |   0.0 |  3.07
Output  | 7.7e-05    | 7.7e-05    | 7.7e-05    |   0.0 |  0.04
Modify  | 0          | 0          | 0          |   0.0 |  0.00
Other   |            | 0.003919   |            |       |  1.89

Nlocal:            795 ave         795 max         795 min
Histogram: 1 0 0 0 0 0 0 0 0 0
Nghost:           5526 ave        5526 max        5526 min
Histogram: 1 0 0 0 0 0 0 0 0 0
Neighs:          50620 ave       50620 max       50620 min
Histogram: 1 0 0 0 0 0 0 0 0 0

Total # of neighbors = 50620
Ave neighs/atom = 63.672956
Neighbor list builds = 37
Dangerous builds = 0
#timestep 0.25
fix 1 all nvt temp 1000.0 1000.0 $(100.0*dt) ### MODIFY INITIAL TEMP, FINAL TEMP ###
fix 1 all nvt temp 1000.0 1000.0 25 
run 400000
  generated 0 of 0 mixed pair_coeff terms from geometric mixing rule
Per MPI rank memory allocation (min/avg/max) = 4.725 | 4.725 | 4.725 Mbytes
Step Temp Press Volume Lx Density PotEng TotEng 
     100          923     47792497    6724.9433    48.731617    2.3577398    1156645.3    1158829.8 
     200    22141.825     10956376    6724.9433    48.731617    2.3577398    250772.37    303176.83 
     300    5723.5035    8373323.7    6724.9433    48.731617    2.3577398    194405.34    207951.52 
     400    2594.2528    7752552.6    6724.9433    48.731617    2.3577398    180547.52     186687.5 
     500    1783.8328    7462457.5    6724.9433    48.731617    2.3577398     173818.6    178040.51 
     600    1259.8848    7304818.1    6724.9433    48.731617    2.3577398    170196.84    173178.69 
     700    1067.2208    7205338.8    6724.9433    48.731617    2.3577398    167856.66    170382.52 
     800    1041.6446      7119146    6724.9433    48.731617    2.3577398    165775.08    168240.41 
     900    1077.8593    7039749.7    6724.9433    48.731617    2.3577398    163834.45    166385.48 
    1000    1025.9654    6978418.2    6724.9433    48.731617    2.3577398    162366.37    164794.59 
    1100    903.65255    6931013.3    6724.9433    48.731617    2.3577398    161264.56    163403.29 
    1200    883.33112    6897080.7    6724.9433    48.731617    2.3577398    160451.18    162541.82 
    1300    791.47809    6890891.7    6724.9433    48.731617    2.3577398    160334.57    162207.81 
    1400    925.73389    6893015.8    6724.9433    48.731617    2.3577398    160333.18    162524.17 
    1500    1153.9463    6901794.9    6724.9433    48.731617    2.3577398    160458.05    163189.17 
    1600     1145.908    6905067.9    6724.9433    48.731617    2.3577398    160540.39    163252.48 
    1700    1041.6351    6885937.9    6724.9433    48.731617    2.3577398    160116.86    162582.16 
    1800    911.46457    6861011.6    6724.9433    48.731617    2.3577398    159563.25    161720.47 
    1900    828.53898    6850017.4    6724.9433    48.731617    2.3577398    159329.07    161290.02 
    2000    985.11693    6842217.8    6724.9433    48.731617    2.3577398    159082.09    161413.63 
    2100    1022.8003    6849815.2    6724.9433    48.731617    2.3577398    159249.26    161669.99 
    2200    1122.4435    6847436.2    6724.9433    48.731617    2.3577398    159154.61    161811.16 
    2300    1092.6271    6838575.1    6724.9433    48.731617    2.3577398    158951.79    161537.78 
    2400    1034.5023    6811686.9    6724.9433    48.731617    2.3577398    158321.65    160770.08 
    2500    900.68316    6789865.9    6724.9433    48.731617    2.3577398    157843.09    159974.79 
    2600    917.17626    6773670.6    6724.9433    48.731617    2.3577398    157445.94    159616.68 
    2700    888.07744    6781513.2    6724.9433    48.731617    2.3577398    157645.53     159747.4 
    2800    1065.2817    6792284.1    6724.9433    48.731617    2.3577398    157838.76    160360.03 
    2900    1069.4658    6811829.3    6724.9433    48.731617    2.3577398    158310.33     160841.5 
    3000     1157.458    6806525.4    6724.9433    48.731617    2.3577398    158146.93    160886.36 
    3100     1060.538    6788480.9    6724.9433    48.731617    2.3577398    157746.49    160256.53 
    3200    983.30344    6761579.1    6724.9433    48.731617    2.3577398    157125.73    159452.98 
    3300    930.09099    6739772.4    6724.9433    48.731617    2.3577398    156616.78    158818.08 
    3400    910.28798    6733169.9    6724.9433    48.731617    2.3577398    156463.48    158617.92 
    3500    1054.9828    6733330.6    6724.9433    48.731617    2.3577398    156413.06    158909.96 
    3600    1145.8017      6731460    6724.9433    48.731617    2.3577398    156334.23    159046.07 
    3700    1111.5334    6714847.6    6724.9433    48.731617    2.3577398    155943.96    158574.69 
    3800    917.38155    6702982.9    6724.9433    48.731617    2.3577398    155731.73    157902.96 
    3900    992.65241    6681907.4    6724.9433    48.731617    2.3577398    155191.68    157541.05 
    4000    1017.1182    6672552.8    6724.9433    48.731617    2.3577398    154954.57    157361.84 
    4100     967.7416    6664625.1    6724.9433    48.731617    2.3577398    154783.38     157073.8 
    4200    940.35759    6659652.1    6724.9433    48.731617    2.3577398    154672.06    156897.66 
    4300    948.96064    6664901.6    6724.9433    48.731617    2.3577398    154797.05    157043.02 
    4400    1100.2579    6663842.2    6724.9433    48.731617    2.3577398    154714.61    157318.66 
    4500    1100.1169    6659023.6    6724.9433    48.731617    2.3577398    154597.04    157200.76 
    4600    1084.4952    6632890.3    6724.9433    48.731617    2.3577398     153972.3    156539.04 
    4700    1048.5719    6588413.1    6724.9433    48.731617    2.3577398    152906.38     155388.1 
    4800    878.82896    6555170.1    6724.9433    48.731617    2.3577398    152166.42     154246.4 
    4900    885.41438    6536207.3    6724.9433    48.731617    2.3577398    151703.92    153799.48 
    5000     885.6904    6543423.5    6724.9433    48.731617    2.3577398    151878.77    153974.99 
    5100    1087.9196    6553569.9    6724.9433    48.731617    2.3577398    152046.04    154620.89 
    5200    1171.8509    6557698.8    6724.9433    48.731617    2.3577398    152113.75    154887.25 
    5300    1076.6377    6539437.8    6724.9433    48.731617    2.3577398    151708.99    154257.13 
    5400    922.30815    6518983.4    6724.9433    48.731617    2.3577398    151273.46    153456.34 
    5500    878.46639    6507836.3    6724.9433    48.731617    2.3577398    151022.31    153101.43 
    5600    1007.3843    6503186.1    6724.9433    48.731617    2.3577398    150861.75    153245.99 
    5700    1055.1993    6510217.8    6724.9433    48.731617    2.3577398    151012.62    153510.03 
    5800    1115.9275    6511850.7    6724.9433    48.731617    2.3577398    151027.77    153668.91 
    5900    1055.3738    6513325.4    6724.9433    48.731617    2.3577398     151088.8    153586.62 
    6000    1044.8198    6504336.9    6724.9433    48.731617    2.3577398    150873.94    153346.78 
    6100    907.60446    6503549.5    6724.9433    48.731617    2.3577398    150908.28    153056.37 
    6200    935.92107      6500808    6724.9433    48.731617    2.3577398       150832    153047.11 
    6300    979.48016    6505445.7    6724.9433    48.731617    2.3577398    150927.84    153246.04 
    6400    1004.9263    6514227.2    6724.9433    48.731617    2.3577398    151129.81    153508.24 
    6500    1081.9981    6513572.3    6724.9433    48.731617    2.3577398    151083.43    153644.26 
    6600    989.14102      6512825    6724.9433    48.731617    2.3577398    151102.79    153443.85 
    6700    980.36509    6504207.9    6724.9433    48.731617    2.3577398    150894.72    153215.01 
    6800    950.09073      6502301    6724.9433    48.731617    2.3577398    150861.83    153110.47 
    6900     964.8889    6503252.7    6724.9433    48.731617    2.3577398    150880.25    153163.91 
    7000    1031.6879    6506975.8    6724.9433    48.731617    2.3577398     150943.1    153384.86 
    7100    1065.3957    6511853.5    6724.9433    48.731617    2.3577398    151048.64    153570.18 
    7200    1040.4238    6510557.9    6724.9433    48.731617    2.3577398    151027.71    153490.15 
    7300    967.04123    6508245.8    6724.9433    48.731617    2.3577398    151000.42    153289.18 
    7400    947.95445    6504548.1    6724.9433    48.731617    2.3577398    150916.68    153160.26 
    7500    965.19398    6504008.6    6724.9433    48.731617    2.3577398    150897.46    153181.84 
    7600    1015.1636    6506534.5    6724.9433    48.731617    2.3577398    150939.59    153342.24 
    7700    1008.0798    6513890.9    6724.9433    48.731617    2.3577398    151121.34    153507.22 
    7800    1072.9206    6509283.6    6724.9433    48.731617    2.3577398    150984.66    153524.01 
    7900    1001.7395    6506903.8    6724.9433    48.731617    2.3577398    150954.31    153325.19 
    8000    973.44439    6501470.7    6724.9433    48.731617    2.3577398     150832.5    153136.41 
    8100    957.53996    6501964.4    6724.9433    48.731617    2.3577398    150851.33     153117.6 
    8200    972.72605    6506920.9    6724.9433    48.731617    2.3577398    150964.91    153267.12 
    8300    1043.1663    6511576.7    6724.9433    48.731617    2.3577398    151051.63    153520.56 
    8400    1042.7764      6515629    6724.9433    48.731617    2.3577398    151148.17    153616.17 
    8500    1074.2106    6505889.8    6724.9433    48.731617    2.3577398    150900.33    153442.73 
    8600    1014.9199    6496599.4    6724.9433    48.731617    2.3577398    150698.09    153100.17 
    8700    923.59839    6487951.9    6724.9433    48.731617    2.3577398    150525.08    152711.02 
    8800    948.48938    6480707.5    6724.9433    48.731617    2.3577398    150339.41    152584.26 
    8900    968.90023    6487382.2    6724.9433    48.731617    2.3577398    150492.78    152785.93 
    9000    1069.5938    6497295.2    6724.9433    48.731617    2.3577398    150694.59    153226.06 
    9100    1107.9091    6504875.2    6724.9433    48.731617    2.3577398    150862.97    153485.13 
    9200    1111.6981    6497068.8    6724.9433    48.731617    2.3577398    150673.45    153304.57 
    9300    956.86764    6492757.9    6724.9433    48.731617    2.3577398    150628.32       152893 
    9400    912.40906    6484858.7    6724.9433    48.731617    2.3577398    150455.34     152614.8 
    9500    933.75624    6485995.2    6724.9433    48.731617    2.3577398    150473.86    152683.84 
    9600    1004.9001    6495184.3    6724.9433    48.731617    2.3577398     150667.9    153046.26 
    9700    1110.3012    6499786.3    6724.9433    48.731617    2.3577398    150738.56    153366.38 
    9800    1024.0616    6505350.1    6724.9433    48.731617    2.3577398    150907.95    153331.66 
    9900    1011.1982    6494447.7    6724.9433    48.731617    2.3577398    150648.23     153041.5 
   10000    941.32559    6488181.2    6724.9433    48.731617    2.3577398    150523.26    152751.16 
   10100     944.9043    6486556.1    6724.9433    48.731617    2.3577398    150482.73    152719.09 
   10200    1005.2954    6491550.6    6724.9433    48.731617    2.3577398       150580     152959.3 
   10300    1017.5633    6499539.5    6724.9433    48.731617    2.3577398    150770.06    153178.39 
   10400    1059.0341    6497556.1    6724.9433    48.731617    2.3577398    150706.01    153212.49 
   10500    996.09133    6492099.6    6724.9433    48.731617    2.3577398    150596.67    152954.19 
   10600    963.60708    6482518.7    6724.9433    48.731617    2.3577398     150376.5    152657.13 
   10700     899.5965      6483509    6724.9433    48.731617    2.3577398    150426.37     152555.5 
   10800    975.25064    6486671.4    6724.9433    48.731617    2.3577398    150473.54    152781.73 
   10900    1068.1708    6493895.6    6724.9433    48.731617    2.3577398    150611.74    153139.85 
   11000    1075.0171    6498738.6    6724.9433    48.731617    2.3577398    150726.18    153270.49 
   11100    1052.5924    6488942.7    6724.9433    48.731617    2.3577398    150498.02    152989.26 
   11200     965.7267    6477382.7    6724.9433    48.731617    2.3577398    150252.41    152538.06 
   11300    889.91396    6474225.5    6724.9433    48.731617    2.3577398     150204.2    152310.41 
   11400    961.94175    6475306.1    6724.9433    48.731617    2.3577398    150203.07    152479.76 
   11500    1050.4394      6484652    6724.9433    48.731617    2.3577398    150397.45    152883.59 
   11600    1050.2808    6494622.2    6724.9433    48.731617    2.3577398    150636.64    153122.41 
   11700    1114.0248    6484529.2    6724.9433    48.731617    2.3577398    150367.25    153003.88 
   11800    996.63236    6477147.9    6724.9433    48.731617    2.3577398    150234.75    152593.54 
   11900    912.96506    6472303.3    6724.9433    48.731617    2.3577398    150149.82    152310.59 
   12000    909.77687    6475587.2    6724.9433    48.731617    2.3577398    150230.15    152383.38 
   12100    1018.1992    6482359.1    6724.9433    48.731617    2.3577398    150352.82    152762.65 
   12200     1076.824    6489857.4    6724.9433    48.731617    2.3577398    150510.86    153059.45 
   12300    1041.1691    6489524.9    6724.9433    48.731617    2.3577398    150517.06    152981.26 
   12400    983.71479    6480235.9    6724.9433    48.731617    2.3577398    150313.58     152641.8 
   12500    947.83654    6472658.5    6724.9433    48.731617    2.3577398    150143.62    152386.93 
   12600    936.32731    6474786.1    6724.9433    48.731617    2.3577398    150199.86    152415.93 
   12700    996.37992    6480919.6    6724.9433    48.731617    2.3577398     150327.1    152685.29 
   12800    1092.1332    6483612.2    6724.9433    48.731617    2.3577398    150353.42    152938.24 
   12900    1078.2772    6482860.3    6724.9433    48.731617    2.3577398    150339.73    152891.76 
   13000    984.29993    6479366.5    6724.9433    48.731617    2.3577398    150293.04    152622.64 
   13100     917.4867    6475664.4    6724.9433    48.731617    2.3577398    150228.57    152400.04 
   13200    950.02754    6472692.9    6724.9433    48.731617    2.3577398     150144.8    152393.29 
   13300    931.80579    6482641.6    6724.9433    48.731617    2.3577398    150393.09    152598.45 
   13400    1054.3574    6485563.2    6724.9433    48.731617    2.3577398    150415.87    152911.28 
   13500    1086.7533    6486151.4    6724.9433    48.731617    2.3577398    150418.07    152990.16 
   13600    1015.2992    6482421.7    6724.9433    48.731617    2.3577398    150355.31    152758.28 
   13700    906.57232    6477962.5    6724.9433    48.731617    2.3577398    150289.04    152434.69 
   13800    938.92021    6470208.3    6724.9433    48.731617    2.3577398    150088.55    152310.75 
   13900    990.47532      6473168    6724.9433    48.731617    2.3577398    150139.78       152484 
   14000    1044.6718    6482401.7    6724.9433    48.731617    2.3577398    150342.02    152814.51 
   14100    1109.1007    6485264.4    6724.9433    48.731617    2.3577398    150386.25    153011.23 
   14200    1083.0783    6481644.2    6724.9433    48.731617    2.3577398    150308.86    152872.25 
   14300    991.13597    6475898.8    6724.9433    48.731617    2.3577398     150206.2    152551.98 
   14400    940.29734    6472754.7    6724.9433    48.731617    2.3577398    150149.97    152375.44 
   14500    981.32037    6472336.5    6724.9433    48.731617    2.3577398    150123.77    152446.32 
   14600    993.40226    6480627.6    6724.9433    48.731617    2.3577398    150320.67    152671.82 
   14700    1043.5078    6485686.4    6724.9433    48.731617    2.3577398    150423.73    152893.47 
   14800    1015.4781    6488189.1    6724.9433    48.731617    2.3577398    150495.54    152898.94 
   14900    994.05979    6482701.6    6724.9433    48.731617    2.3577398    150370.51    152723.22 
   15000    993.10178    6473172.3    6724.9433    48.731617    2.3577398    150137.98    152488.41 
   15100    875.67771    6478514.7    6724.9433    48.731617    2.3577398     150313.4    152385.92 
   15200    1019.7128    6472896.5    6724.9433    48.731617    2.3577398    150122.41    152535.83 
   15300    1029.5585    6482564.9    6724.9433    48.731617    2.3577398    150353.03    152789.76 
   15400    1043.8198    6487149.4    6724.9433    48.731617    2.3577398     150458.1    152928.57 
   15500    1023.7539    6484090.1    6724.9433    48.731617    2.3577398    150391.87    152814.86 
   15600    972.92936    6477644.1    6724.9433    48.731617    2.3577398    150255.88    152558.58 
   15700    947.89152      6473238    6724.9433    48.731617    2.3577398    150158.51    152401.94 
   15800    957.94317    6476538.3    6724.9433    48.731617    2.3577398    150233.54    152500.76 
   15900    1072.7079    6477588.7    6724.9433    48.731617    2.3577398    150215.62    152754.47 
   16000    1005.6344      6488335    6724.9433    48.731617    2.3577398    150502.55    152882.65 
   16100    1045.0851    6482564.9    6724.9433    48.731617    2.3577398    150346.44    152819.91 
   16200    959.37036    6480748.1    6724.9433    48.731617    2.3577398    150336.03    152606.63 
   16300    952.15288    6475442.6    6724.9433    48.731617    2.3577398     150210.6    152464.12 
   16400     949.5634    6477104.2    6724.9433    48.731617    2.3577398     150252.4    152499.79 
   16500     1026.262    6478436.3    6724.9433    48.731617    2.3577398    150253.73    152682.65 
   16600    1044.1776    6482779.6    6724.9433    48.731617    2.3577398    150353.37     152824.7 
   16700     1039.889    6481428.3    6724.9433    48.731617    2.3577398    150321.43    152782.61 
   16800    957.23443    6482325.9    6724.9433    48.731617    2.3577398    150375.97    152641.52 
   16900    1011.1659    6474722.2    6724.9433    48.731617    2.3577398    150169.41     152562.6 
   17000    968.43408      6478286    6724.9433    48.731617    2.3577398    150272.24    152564.29 
   17100     1017.418    6477860.7    6724.9433    48.731617    2.3577398    150243.49    152651.47 
   17200    1045.6198    6479230.2    6724.9433    48.731617    2.3577398    150265.36     152740.1 
   17300    1016.2659    6481737.9    6724.9433    48.731617    2.3577398    150337.58    152742.84 
   17400    967.42374    6482183.7    6724.9433    48.731617    2.3577398    150368.31    152657.98 
   17500    984.92533    6478616.6    6724.9433    48.731617    2.3577398    150274.29    152605.38 
   17600    996.28935    6478157.9    6724.9433    48.731617    2.3577398    150258.04    152616.02 
   17700    966.21399      6482359    6724.9433    48.731617    2.3577398    150373.29    152660.09 
   17800     1024.403    6479794.1    6724.9433    48.731617    2.3577398    150287.04    152711.56 
   17900     1054.796    6476538.6    6724.9433    48.731617    2.3577398    150197.02    152693.47 
   18000    995.29049    6479349.8    6724.9433    48.731617    2.3577398    150288.34    152643.96 
   18100    1011.5097    6477279.5    6724.9433    48.731617    2.3577398    150232.47    152626.48 
   18200    1009.5501    6478035.7    6724.9433    48.731617    2.3577398    150249.93    152639.29 
   18300    1033.2129    6477727.1    6724.9433    48.731617    2.3577398    150234.63       152680 
   18400    1040.5824    6478721.1    6724.9433    48.731617    2.3577398    150255.47    152718.28 
   18500    1019.5019    6479491.5    6724.9433    48.731617    2.3577398    150283.09    152696.01 
   18600    985.32365    6479359.6    6724.9433    48.731617    2.3577398    150292.02    152624.05 
   18700    995.97378    6476568.2    6724.9433    48.731617    2.3577398    150220.54    152577.78 
   18800    997.96862    6478234.6    6724.9433    48.731617    2.3577398    150259.38    152621.34 
   18900    1016.0528    6480337.3    6724.9433    48.731617    2.3577398    150304.58    152709.33 
   19000    1048.2395    6479721.3    6724.9433    48.731617    2.3577398    150276.33    152757.26 
   19100    1022.6061    6480065.3    6724.9433    48.731617    2.3577398     150295.2    152715.47 
   19200    997.70702    6477105.6    6724.9433    48.731617    2.3577398    150233.62    152594.96 
   19300    967.27679    6477177.1    6724.9433    48.731617    2.3577398    150246.41    152535.73 
   19400    1012.2411    6475544.8    6724.9433    48.731617    2.3577398    150189.81    152585.55 
   19500     1017.045      6480144    6724.9433    48.731617    2.3577398    150298.71    152705.81 
   19600    1010.6578    6484246.6    6724.9433    48.731617    2.3577398    150401.33    152793.32 
   19700    1048.4943    6480218.3    6724.9433    48.731617    2.3577398    150288.61    152770.15 
   19800    969.64821    6481441.7    6724.9433    48.731617    2.3577398     150347.6    152642.53 
   19900    979.32774    6475093.4    6724.9433    48.731617    2.3577398    150191.04    152508.88 
   20000    967.13385    6476005.8    6724.9433    48.731617    2.3577398    150218.74    152507.72 
   20100    977.86112    6480540.5    6724.9433    48.731617    2.3577398     150324.2    152638.56 
   20200    1063.8909    6480776.8    6724.9433    48.731617    2.3577398     150296.6    152814.58 
   20300    1030.7887    6484527.5    6724.9433    48.731617    2.3577398    150399.97     152839.6 
   20400    1053.5491    6477272.6    6724.9433    48.731617    2.3577398    150216.58    152710.09 
   20500    981.92211    6475971.4    6724.9433    48.731617    2.3577398    150212.43     152536.4 
   20600    981.56887    6473365.5    6724.9433    48.731617    2.3577398    150148.14    152471.28 
   20700    990.31351    6476281.7    6724.9433    48.731617    2.3577398    150214.97    152558.81 
   20800    993.66655    6483612.8    6724.9433    48.731617    2.3577398       150392    152743.78 
   20900    1041.5623      6483975    6724.9433    48.731617    2.3577398    150382.08    152847.21 
   21000    989.78249    6485250.6    6724.9433    48.731617    2.3577398    150433.32     152775.9 
   21100    947.86891    6481417.4    6724.9433    48.731617    2.3577398    150357.73    152601.11 
   21200    926.12763    6479196.9    6724.9433    48.731617    2.3577398    150310.18     152502.1 
   21300     972.8759    6476908.3    6724.9433    48.731617    2.3577398    150237.52    152540.09 
   21400     1013.486    6478644.3    6724.9433    48.731617    2.3577398    150264.48    152663.16 
   21500    1057.2547    6480253.5    6724.9433    48.731617    2.3577398    150286.76    152789.03 
   21600    1019.6534    6483141.6    6724.9433    48.731617    2.3577398    150370.85    152784.13 
   21700    1054.9147    6475110.4    6724.9433    48.731617    2.3577398    150161.48    152658.22 
   21800    984.40713    6476538.1    6724.9433    48.731617    2.3577398    150223.92    152553.78 
   21900    988.68721    6475875.2    6724.9433    48.731617    2.3577398    150207.46    152547.45 
   22000    997.12076    6478477.1    6724.9433    48.731617    2.3577398    150266.44    152626.39 
   22100    1025.1717    6480558.4    6724.9433    48.731617    2.3577398     150306.7    152733.04 
   22200    1041.2629    6481487.7    6724.9433    48.731617    2.3577398    150322.47     152786.9 
   22300    1000.1126    6481779.8    6724.9433    48.731617    2.3577398    150346.07     152713.1 
   22400    966.31812    6479787.2    6724.9433    48.731617    2.3577398    150310.62    152597.67 
   22500    977.14665      6476817    6724.9433    48.731617    2.3577398    150234.12     152546.8 
   22600    995.01029    6477262.9    6724.9433    48.731617    2.3577398     150237.8    152592.75 
   22700    973.16683    6482879.7    6724.9433    48.731617    2.3577398     150381.9    152685.16 
   22800    1044.7592    6480588.6    6724.9433    48.731617    2.3577398    150299.29    152771.99 
   22900    976.23061    6484858.4    6724.9433    48.731617    2.3577398     150429.4     152739.9 
   23000    1010.1383    6478058.3    6724.9433    48.731617    2.3577398    150252.43    152643.19 
   23100    953.96772    6479365.2    6724.9433    48.731617    2.3577398    150305.04    152562.86 
   23200    984.71448    6477524.4    6724.9433    48.731617    2.3577398    150249.32    152579.91 
   23300    1002.9694    6479394.1    6724.9433    48.731617    2.3577398    150286.94    152660.73 
   23400    1043.6889    6479677.1    6724.9433    48.731617    2.3577398    150276.42    152746.59 
   23500    1016.5553    6481559.1    6724.9433    48.731617    2.3577398    150334.65     152740.6 
   23600    1005.7266    6479295.5    6724.9433    48.731617    2.3577398    150282.32    152662.64 
   23700    995.32594    6476773.8    6724.9433    48.731617    2.3577398    150225.29    152580.99 
   23800    957.94805    6479444.4    6724.9433    48.731617    2.3577398    150304.26    152571.49 
   23900    1028.5862    6476884.6    6724.9433    48.731617    2.3577398    150216.48     152650.9 
   24000    988.32533      6484121    6724.9433    48.731617    2.3577398    150406.99    152746.12 
   24100    972.51536    6486023.7    6724.9433    48.731617    2.3577398    150460.31    152762.03 
   24200    991.62406    6480140.6    6724.9433    48.731617    2.3577398    150309.41    152656.35 
   24300    954.75652    6479414.4    6724.9433    48.731617    2.3577398    150306.05    152565.73 
   24400    963.00908    6477969.4    6724.9433    48.731617    2.3577398    150266.88    152546.09 
   24500    956.39806    6481743.6    6724.9433    48.731617    2.3577398    150362.39    152625.96 
   24600    1022.9493    6481488.1    6724.9433    48.731617    2.3577398    150329.81    152750.89 
   24700    1034.6855    6482448.3    6724.9433    48.731617    2.3577398    150346.92    152795.77 
   24800    1057.1862    6477050.6    6724.9433    48.731617    2.3577398    150208.55    152710.66 
   24900    942.62126    6480696.9    6724.9433    48.731617    2.3577398    150342.48    152573.44 
   25000    963.54555    6477285.7    6724.9433    48.731617    2.3577398    150250.36    152530.84 
   25100    1002.3015    6476555.3    6724.9433    48.731617    2.3577398    150217.71    152589.92 
   25200    1004.1775    6481339.8    6724.9433    48.731617    2.3577398    150333.83    152710.49 
   25300     1047.543    6481163.1    6724.9433    48.731617    2.3577398    150312.41     152791.7 
   25400    1032.0528    6480723.8    6724.9433    48.731617    2.3577398    150307.82    152750.45 
   25500    943.45564    6482487.6    6724.9433    48.731617    2.3577398    150383.99    152616.93 
   25600    954.33676    6477803.7    6724.9433    48.731617    2.3577398     150266.7    152525.39 
   25700    976.23827      6477298    6724.9433    48.731617    2.3577398    150245.61    152556.13 
   25800    994.73592    6480974.5    6724.9433    48.731617    2.3577398     150328.2    152682.51 
   25900    1020.9847    6483146.3    6724.9433    48.731617    2.3577398    150369.82    152786.25 
   26000    1051.2956    6480793.7    6724.9433    48.731617    2.3577398     150302.3    152790.47 
   26100     951.1661    6483341.2    6724.9433    48.731617    2.3577398    150403.08    152654.26 
   26200     978.9823    6475933.7    6724.9433    48.731617    2.3577398    150212.26    152529.28 
   26300    956.95543    6476780.8    6724.9433    48.731617    2.3577398    150241.44    152506.33 
   26400    983.31545    6479262.7    6724.9433    48.731617    2.3577398    150290.98    152618.26 
   26500    1027.5281    6481878.6    6724.9433    48.731617    2.3577398    150336.72    152768.63 
   26600    1009.3858      6485447    6724.9433    48.731617    2.3577398    150431.11    152820.09 
   26700    1008.4728    6482361.5    6724.9433    48.731617    2.3577398    150354.71    152741.53 
   26800    931.77232    6481733.1    6724.9433    48.731617    2.3577398     150370.6    152575.88 
   26900    973.58493    6475214.8    6724.9433    48.731617    2.3577398    150196.64    152500.89 
   27000    961.60284    6478434.4    6724.9433    48.731617    2.3577398    150280.72    152556.61 
   27100    1000.7412    6481475.1    6724.9433    48.731617    2.3577398    150337.82    152706.33 
   27200    996.42299    6486120.2    6724.9433    48.731617    2.3577398    150452.58    152810.87 
   27300    1025.6949    6481659.8    6724.9433    48.731617    2.3577398    150332.38    152759.96 
   27400    1006.1817    6477965.7    6724.9433    48.731617    2.3577398    150250.97    152632.37 
   27500    955.62682      6477863    6724.9433    48.731617    2.3577398    150267.16     152528.9 
   27600    956.79037    6478643.4    6724.9433    48.731617    2.3577398    150286.15    152550.64 
   27700    1029.2824    6477681.3    6724.9433    48.731617    2.3577398    150235.22    152671.29 
   27800    1023.1033    6482868.1    6724.9433    48.731617    2.3577398    150362.73    152784.17 
   27900    1035.7793    6481306.1    6724.9433    48.731617    2.3577398    150320.42    152771.86 
   28000    995.02934    6479311.8    6724.9433    48.731617    2.3577398    150287.17    152642.17 
   28100    936.85345    6479719.9    6724.9433    48.731617    2.3577398    150320.63    152537.95 
   28200    960.21866    6478330.6    6724.9433    48.731617    2.3577398     150277.4    152550.01 
   28300    977.75377    6481472.7    6724.9433    48.731617    2.3577398    150346.59     152660.7 
   28400    1027.5044    6482474.1    6724.9433    48.731617    2.3577398    150351.64     152783.5 
   28500    1072.4085    6478961.2    6724.9433    48.731617    2.3577398    150248.59    152786.73 
   28600     1004.216    6479469.5    6724.9433    48.731617    2.3577398     150287.2    152663.94 
   28700     969.7218    6477323.7    6724.9433    48.731617    2.3577398    150250.21    152545.31 
   28800    982.21848      6475870    6724.9433    48.731617    2.3577398    150208.96    152533.63 
   28900    978.58867    6480055.5    6724.9433    48.731617    2.3577398    150312.49    152628.58 
   29000    990.28023      6484214    6724.9433    48.731617    2.3577398     150408.3    152752.06 
   29100    1052.3217    6480715.4    6724.9433    48.731617    2.3577398     150299.6    152790.19 
   29200    987.34502    6482257.2    6724.9433    48.731617    2.3577398    150362.72    152699.53 
   29300    963.96628    6478647.9    6724.9433    48.731617    2.3577398    150283.26    152564.74 
   29400    1012.5476    6473037.4    6724.9433    48.731617    2.3577398    150127.31    152523.77 
   29500     955.6277    6481270.6    6724.9433    48.731617    2.3577398     150350.2    152611.94 
   29600    993.32698    6483850.6    6724.9433    48.731617    2.3577398    150397.04    152748.01 
   29700    1008.5484    6484559.6    6724.9433    48.731617    2.3577398     150409.8     152796.8 
   29800    991.72459    6483110.5    6724.9433    48.731617    2.3577398    150382.04    152729.21 
   29900    971.29129    6479247.8    6724.9433    48.731617    2.3577398    150295.78     152594.6 
   30000    968.90797    6476317.6    6724.9433    48.731617    2.3577398    150224.67    152517.84 
   30100    1024.6225    6473573.6    6724.9433    48.731617    2.3577398    150136.71    152561.74 
   30200    1011.1891    6479667.6    6724.9433    48.731617    2.3577398    150290.26     152683.5 
   30300    1045.1973    6481876.5    6724.9433    48.731617    2.3577398    150330.14    152803.88 
   30400    1027.5203    6482817.9    6724.9433    48.731617    2.3577398    150359.97    152791.87 
   30500    1018.2002    6477746.1    6724.9433    48.731617    2.3577398    150241.16       152651 
   30600    1017.7351    6472481.7    6724.9433    48.731617    2.3577398    150111.64    152520.38 
   30700    939.23467    6478372.4    6724.9433    48.731617    2.3577398    150286.82    152509.76 
   30800    1001.1819    6478840.5    6724.9433    48.731617    2.3577398    150272.35    152641.91 
   30900    1015.9969      6484040    6724.9433    48.731617    2.3577398    150393.51    152798.13 
   31000     1059.798    6481900.3    6724.9433    48.731617    2.3577398    150325.38    152833.67 
   31100    1032.2118    6478725.2    6724.9433    48.731617    2.3577398    150258.89    152701.89 
   31200    988.83059    6475551.1    6724.9433    48.731617    2.3577398    150198.31    152538.63 
   31300    986.40469    6473904.4    6724.9433    48.731617    2.3577398    150159.89    152494.48 
   31400      973.337    6479315.5    6724.9433    48.731617    2.3577398    150295.95    152599.61 
   31500    1009.3764    6482532.4    6724.9433    48.731617    2.3577398    150359.46    152748.41 
   31600    1080.7586    6480421.1    6724.9433    48.731617    2.3577398     150280.9     152838.8 
   31700    1040.3884    6480293.9    6724.9433    48.731617    2.3577398    150294.31    152756.67 
   31800    1020.3898    6474924.2    6724.9433    48.731617    2.3577398    150171.54    152586.56 
   31900    966.97994    6475214.1    6724.9433    48.731617    2.3577398    150200.17    152488.78 
   32000    935.40921    6479866.5    6724.9433    48.731617    2.3577398    150325.17    152539.06 
   32100    1003.2621    6480642.1    6724.9433    48.731617    2.3577398    150316.95    152691.43 
   32200    1007.4639    6485421.3    6724.9433    48.731617    2.3577398    150431.15    152815.58 
   32300    1025.8768    6483438.7    6724.9433    48.731617    2.3577398    150375.35    152803.35 
   32400    1026.4886    6477306.7    6724.9433    48.731617    2.3577398    150227.07    152656.52 
   32500    983.35868    6474676.2    6724.9433    48.731617    2.3577398    150179.53    152506.91 
   32600    975.69299    6475285.1    6724.9433    48.731617    2.3577398    150197.89    152507.12 
   32700    994.87071    6479223.1    6724.9433    48.731617    2.3577398    150285.69    152640.31 
   32800    1004.4619    6484557.6    6724.9433    48.731617    2.3577398    150411.82    152789.14 
   32900    1015.2477    6484770.1    6724.9433    48.731617    2.3577398    150412.59    152815.44 
   33000    1005.7758    6479853.2    6724.9433    48.731617    2.3577398    150296.81    152677.25 
   33100    974.72209    6476681.7    6724.9433    48.731617    2.3577398    150231.79    152538.73 
   33200      970.126    6476154.7    6724.9433    48.731617    2.3577398    150219.55    152515.61 
   33300    968.34889    6480521.7    6724.9433    48.731617    2.3577398     150327.8    152619.65 
   33400    1003.4739    6483309.3    6724.9433    48.731617    2.3577398    150381.47    152756.46 
   33500    1002.9891    6485480.3    6724.9433    48.731617    2.3577398    150434.56     152808.4 
   33600    994.10744    6482287.4    6724.9433    48.731617    2.3577398    150360.83    152713.65 
   33700    991.21251      6477064    6724.9433    48.731617    2.3577398    150233.58    152579.55 
   33800    957.88671    6476655.4    6724.9433    48.731617    2.3577398    150237.69    152504.78 
   33900    938.00494    6480724.2    6724.9433    48.731617    2.3577398     150344.7    152564.73 
   34000    1022.7577    6480089.8    6724.9433    48.731617    2.3577398    150295.77    152716.39 
   34100    1050.2884    6482541.3    6724.9433    48.731617    2.3577398     150345.6    152831.39 
   34200    1019.5467    6483369.5    6724.9433    48.731617    2.3577398    150376.65    152789.68 
   34300    998.78564    6477854.1    6724.9433    48.731617    2.3577398    150250.49    152614.37 
   34400    1006.7572    6472279.6    6724.9433    48.731617    2.3577398    150112.38    152495.14 
   34500    966.79075    6476657.1    6724.9433    48.731617    2.3577398    150234.12    152522.29 
   34600    965.61338    6483396.4    6724.9433    48.731617    2.3577398    150397.68    152683.06 
   34700    1007.4662    6485516.5    6724.9433    48.731617    2.3577398    150433.44    152817.88 
   34800    1036.3327      6482816    6724.9433    48.731617    2.3577398    150356.72    152809.48 
   34900    1037.6788    6476779.8    6724.9433    48.731617    2.3577398    150209.49    152665.43 
   35000    969.66229    6476180.8    6724.9433    48.731617    2.3577398     150221.5    152516.46 
   35100    984.62657    6474334.9    6724.9433    48.731617    2.3577398    150170.35    152500.73 
   35200      971.015    6480289.8    6724.9433    48.731617    2.3577398    150319.72    152617.88 
   35300    1043.0394    6481471.2    6724.9433    48.731617    2.3577398    150321.02    152789.65 
   35400    1015.3692    6485366.2    6724.9433    48.731617    2.3577398    150427.08    152830.22 
   35500    1002.1401    6482234.8    6724.9433    48.731617    2.3577398    150355.28    152727.11 
   35600    975.54518    6477491.3    6724.9433    48.731617    2.3577398    150251.34    152560.22 
   35700    991.33484    6473023.5    6724.9433    48.731617    2.3577398    150135.45    152481.71 
   35800    934.79442    6480340.7    6724.9433    48.731617    2.3577398    150336.91    152549.35 
   35900     1020.377    6480998.8    6724.9433    48.731617    2.3577398    150319.02    152734.01 
   36000    1041.1363    6484361.8    6724.9433    48.731617    2.3577398    150391.83    152855.95 
   36100    1029.7699    6481939.3    6724.9433    48.731617    2.3577398    150337.84    152775.06 
   36200    978.80864    6478498.9    6724.9433    48.731617    2.3577398    150273.69     152590.3 
   36300    951.51709    6475887.9    6724.9433    48.731617    2.3577398    150220.38     152472.4 
   36400    944.77452    6478422.5    6724.9433    48.731617    2.3577398     150284.2    152520.25 
   36500     996.5977    6481213.4    6724.9433    48.731617    2.3577398    150333.02    152691.73 
   36600    1071.4296    6481564.5    6724.9433    48.731617    2.3577398    150312.21    152848.03 
   36700    1038.8044    6483027.1    6724.9433    48.731617    2.3577398    150359.94    152818.54 
   36800    980.84664    6480229.5    6724.9433    48.731617    2.3577398    150314.66     152636.1 
   36900    940.11024    6477419.1    6724.9433    48.731617    2.3577398    150263.87    152488.89 
   37000    970.63261    6475063.6    6724.9433    48.731617    2.3577398    150195.32    152492.58 
   37100    1039.0608    6475864.3    6724.9433    48.731617    2.3577398    150186.07    152645.28 
   37200    1031.8991    6482625.6    6724.9433    48.731617    2.3577398    150353.22    152795.48 
   37300    1061.6195    6481391.9    6724.9433    48.731617    2.3577398    150312.18    152824.79 
   37400    995.27199      6482444    6724.9433    48.731617    2.3577398    150362.84    152718.41 
   37500     978.9223    6476957.7    6724.9433    48.731617    2.3577398    150236.31    152553.19 
   37600    975.89764    6474279.1    6724.9433    48.731617    2.3577398    150172.77    152482.49 
   37700    989.36901      6476619    6724.9433    48.731617    2.3577398    150223.64    152565.24 
   37800    969.81384      6484587    6724.9433    48.731617    2.3577398    150426.53    152721.85 
   37900    1056.2076    6482056.8    6724.9433    48.731617    2.3577398    150329.68    152829.48 
   38000    1030.5474    6481614.1    6724.9433    48.731617    2.3577398       150329    152768.07 
   38100    958.01627    6481547.6    6724.9433    48.731617    2.3577398    150356.93    152624.32 
   38200    978.81712    6475254.5    6724.9433    48.731617    2.3577398    150194.92    152511.55 
   38300    982.72226      6475940    6724.9433    48.731617    2.3577398    150209.24    152535.11 
   38400     1022.595      6478586    6724.9433    48.731617    2.3577398    150258.58    152678.82 
   38500    995.33023    6485755.6    6724.9433    48.731617    2.3577398    150443.24    152798.95 
   38600    1009.1289    6484153.7    6724.9433    48.731617    2.3577398    150398.22    152786.59 
   38700     971.4948    6481433.9    6724.9433    48.731617    2.3577398    150348.45    152647.75 
   38800    990.43076    6475181.1    6724.9433    48.731617    2.3577398    150189.49    152533.61 
   38900    935.61872    6479647.8    6724.9433    48.731617    2.3577398    150318.07    152532.46 
   39000    981.16167    6480027.4    6724.9433    48.731617    2.3577398    150309.91    152632.08 
   39100    977.56803    6485388.4    6724.9433    48.731617    2.3577398    150442.82    152756.49 
   39200    1041.4949      6482302    6724.9433    48.731617    2.3577398    150341.57    152806.54 
   39300    1001.8209    6481801.7    6724.9433    48.731617    2.3577398    150346.13     152717.2 
   39400    964.63266    6478418.8    6724.9433    48.731617    2.3577398    150278.46    152561.52 
   39500    933.85003      6478232    6724.9433    48.731617    2.3577398    150285.58    152495.78 
   39600    973.25356    6478289.5    6724.9433    48.731617    2.3577398    150272.34    152575.81 
   39700      1002.16    6482588.5    6724.9433    48.731617    2.3577398    150363.71    152735.59 
   39800    1037.4283    6483435.1    6724.9433    48.731617    2.3577398    150371.39    152826.74 
   39900    1017.5311    6482346.8    6724.9433    48.731617    2.3577398     150352.9    152761.15 
   40000    998.82862    6477312.3    6724.9433    48.731617    2.3577398    150237.73    152601.72 
   40100    960.73249    6476055.3    6724.9433    48.731617    2.3577398    150221.67     152495.5 
   40200    950.94665    6478855.8    6724.9433    48.731617    2.3577398    150293.33       152544 
   40300    1002.2917    6481905.2    6724.9433    48.731617    2.3577398    150347.78    152719.97 
   40400    1027.5318    6484714.7    6724.9433    48.731617    2.3577398    150405.34    152837.27 
   40500    1046.2202    6480610.4    6724.9433    48.731617    2.3577398    150298.17    152774.32 
   40600    998.27047      6477115    6724.9433    48.731617    2.3577398    150232.86    152595.53 
   40700    948.18146    6476642.1    6724.9433    48.731617    2.3577398    150242.42    152486.54 
   40800    970.95789    6476850.8    6724.9433    48.731617    2.3577398     150237.6    152535.63 
   40900    1040.0045    6477997.6    6724.9433    48.731617    2.3577398    150238.19    152699.64 
   41000    999.34897    6486174.4    6724.9433    48.731617    2.3577398    150452.91    152818.13 
   41100    1028.6018      6482877    6724.9433    48.731617    2.3577398    150360.83    152795.29 
   41200    1000.2831    6479480.4    6724.9433    48.731617    2.3577398    150289.28    152656.71 
   41300    962.29424      6477573    6724.9433    48.731617    2.3577398    150257.95    152535.47 
   41400    966.20854    6476671.4    6724.9433    48.731617    2.3577398    150234.21       152521 
   41500    992.01997    6478481.2    6724.9433    48.731617    2.3577398    150268.29    152616.16 
   41600     991.4848      6483624    6724.9433    48.731617    2.3577398    150393.31    152739.92 
   41700    999.28884    6485125.2    6724.9433    48.731617    2.3577398    150426.93    152792.01 
   41800    1071.1985    6477008.8    6724.9433    48.731617    2.3577398    150202.29    152737.56 
   41900    975.23924    6479405.6    6724.9433    48.731617    2.3577398    150298.69    152606.85 
   42000    1018.0017      6472811    6724.9433    48.731617    2.3577398    150120.18    152529.55 
   42100    984.30927    6476783.4    6724.9433    48.731617    2.3577398    150230.88    152560.51 
   42200    1012.5653    6479875.7    6724.9433    48.731617    2.3577398    150293.05    152689.55 
   42300    1065.7749    6479794.4    6724.9433    48.731617    2.3577398    150271.59    152794.02 
   42400    994.19816    6484312.6    6724.9433    48.731617    2.3577398    150409.88    152762.92 
   42500    1009.2744    6477772.1    6724.9433    48.731617    2.3577398    150244.01    152632.72 
   42600    951.73315    6477473.3    6724.9433    48.731617    2.3577398    150260.16    152512.69 
   42700    1009.5732    6473656.8    6724.9433    48.731617    2.3577398    150145.91    152535.33 
   42800    973.50995    6482594.6    6724.9433    48.731617    2.3577398    150376.06    152680.12 
   42900     1018.218    6484905.9    6724.9433    48.731617    2.3577398    150414.98    152824.86 
   43000    1032.0493    6482585.7    6724.9433    48.731617    2.3577398    150352.17    152794.79 
   43100    997.00556    6479058.5    6724.9433    48.731617    2.3577398    150279.87    152639.55 
   43200    981.90255    6474403.7    6724.9433    48.731617    2.3577398    150173.04    152496.97 
   43300    949.24145    6476927.6    6724.9433    48.731617    2.3577398    150248.33    152494.96 
   43400    962.43715    6481888.5    6724.9433    48.731617    2.3577398    150362.48    152640.34 
   43500    1023.1993    6484007.4    6724.9433    48.731617    2.3577398    150390.73     152812.4 
   43600    1079.1549    6480774.7    6724.9433    48.731617    2.3577398    150290.53    152844.64 
   43700    1006.8406      6480661    6724.9433    48.731617    2.3577398    150315.61    152698.56 
   43800    969.60227    6476829.7    6724.9433    48.731617    2.3577398    150236.72    152531.54 
   43900    953.04733      6476255    6724.9433    48.731617    2.3577398    150228.81    152484.45 
   44000    1003.2774    6476313.4    6724.9433    48.731617    2.3577398    150210.78     152585.3 
   44100    1059.8175    6478530.8    6724.9433    48.731617    2.3577398    150244.98    152753.31 
   44200    1035.5656    6483634.6    6724.9433    48.731617    2.3577398    150376.77    152827.71 
   44300    1029.5047    6481336.6    6724.9433    48.731617    2.3577398    150323.14    152759.73 
   44400    1007.5518    6476237.6    6724.9433    48.731617    2.3577398    150208.18    152592.82 
   44500    953.80907    6476668.1    6724.9433    48.731617    2.3577398    150239.36     152496.8 
   44600     989.1323    6475888.5    6724.9433    48.731617    2.3577398    150207.69    152548.74 
   44700    1001.7075    6480934.9    6724.9433    48.731617    2.3577398     150324.9     152695.7 
   44800    1066.2396    6480664.8    6724.9433    48.731617    2.3577398    150293.16     152816.7 
   44900    1028.1404      6482375    6724.9433    48.731617    2.3577398    150348.73    152782.09 
   45000     997.4428    6478220.4    6724.9433    48.731617    2.3577398    150258.92    152619.63 
   45100    934.62132    6478047.5    6724.9433    48.731617    2.3577398     150280.4    152492.42 
   45200    959.57245    6477396.2    6724.9433    48.731617    2.3577398    150254.63    152525.71 
   45300    996.46465    6480967.6    6724.9433    48.731617    2.3577398    150326.53    152684.93 
   45400     1007.446    6486164.4    6724.9433    48.731617    2.3577398    150448.94    152833.33 
   45500    1013.7912    6484857.8    6724.9433    48.731617    2.3577398    150414.21    152813.62 
   45600    1011.2704    6478375.5    6724.9433    48.731617    2.3577398    150258.47     152651.9 
   45700    935.10214    6477866.7    6724.9433    48.731617    2.3577398    150275.51    152488.68 
   45800    976.31623    6474581.1    6724.9433    48.731617    2.3577398    150179.85    152490.56 
   45900    986.15794    6479374.9    6724.9433    48.731617    2.3577398    150293.26    152627.26 
   46000    1031.9684    6482204.5    6724.9433    48.731617    2.3577398    150343.63    152786.06 
   46100    986.82995    6487674.7    6724.9433    48.731617    2.3577398    150493.76    152829.36 
   46200    1007.8343    6481818.7    6724.9433    48.731617    2.3577398    150344.44    152729.75 
   46300    1011.8216    6475206.1    6724.9433    48.731617    2.3577398    150181.71    152576.46 
   46400    979.45814    6474430.4    6724.9433    48.731617    2.3577398    150175.49    152493.64 
   46500    968.82104    6477819.5    6724.9433    48.731617    2.3577398    150261.14    152554.11 
   46600    1022.9418    6479897.1    6724.9433    48.731617    2.3577398    150290.91    152711.97 
   46700    1048.3011    6482298.2    6724.9433    48.731617    2.3577398    150338.56    152819.65 
   46800    1026.0644    6481961.5    6724.9433    48.731617    2.3577398    150339.82    152768.27 
   46900    989.29543    6478751.5    6724.9433    48.731617    2.3577398    150275.45    152616.88 
   47000    963.14532    6476186.1    6724.9433    48.731617    2.3577398    150223.98    152503.51 
   47100    971.18978    6476846.4    6724.9433    48.731617    2.3577398    150236.74    152535.31 
   47200    976.94405    6482866.6    6724.9433    48.731617    2.3577398    150380.77    152692.96 
   47300    999.27794    6486727.2    6724.9433    48.731617    2.3577398    150465.08    152830.14 
   47400    1052.2599    6480465.4    6724.9433    48.731617    2.3577398    150293.67    152784.12 
   47500    979.47583    6479708.2    6724.9433    48.731617    2.3577398    150303.59    152621.78 
   47600    960.25187    6476249.7    6724.9433    48.731617    2.3577398    150227.08    152499.77 
   47700    962.67606      6476771    6724.9433    48.731617    2.3577398     150238.6    152517.03 
   47800    1019.7544    6477739.8    6724.9433    48.731617    2.3577398    150240.81    152654.32 
   47900    1027.8501    6483534.5    6724.9433    48.731617    2.3577398    150376.33    152809.01 
   48000    1009.0882    6485551.9    6724.9433    48.731617    2.3577398    150432.98    152821.26 
   48100    986.01258    6482337.8    6724.9433    48.731617    2.3577398    150364.45     152698.1 
   48200    983.87872    6475978.6    6724.9433    48.731617    2.3577398    150210.93    152539.54 
   48300    959.57523    6475435.2    6724.9433    48.731617    2.3577398    150207.49    152478.58 
   48400    1016.3419    6475057.7    6724.9433    48.731617    2.3577398    150176.65    152582.09 
   48500     1022.945    6481516.6    6724.9433    48.731617    2.3577398    150330.02    152751.09 
   48600    1043.2582      6483726    6724.9433    48.731617    2.3577398    150374.91    152844.06 
   48700    997.43494    6484079.1    6724.9433    48.731617    2.3577398    150402.59    152763.28 
   48800    945.05307    6481675.1    6724.9433    48.731617    2.3577398    150364.23    152600.94 
   48900    947.13345    6477113.7    6724.9433    48.731617    2.3577398    150252.27    152493.91 
   49000    959.86139    6477829.9    6724.9433    48.731617    2.3577398    150264.69    152536.45 
   49100    987.37241    6481960.8    6724.9433    48.731617    2.3577398    150355.31    152692.18 
   49200    1015.1718    6484845.6    6724.9433    48.731617    2.3577398     150414.5    152817.17 
   49300     1034.162    6482653.2    6724.9433    48.731617    2.3577398    150354.06    152801.68 
   49400     1030.178    6476628.1    6724.9433    48.731617    2.3577398    150210.03    152648.22 
   49500    955.92867    6476751.1    6724.9433    48.731617    2.3577398    150241.32    152503.78 
   49600    1000.9841    6473125.4    6724.9433    48.731617    2.3577398    150134.71     152503.8 
   49700     1009.011    6478298.4    6724.9433    48.731617    2.3577398    150256.57    152644.66 
   49800    985.04927    6486481.1    6724.9433    48.731617    2.3577398    150465.72    152797.09 
   49900    1005.1811    6485984.9    6724.9433    48.731617    2.3577398    150444.86    152823.88 
   50000    999.21887    6481597.2    6724.9433    48.731617    2.3577398    150342.14    152707.06 
   50100    976.36307    6476546.7    6724.9433    48.731617    2.3577398    150226.68     152537.5 
   50200    959.12966    6475673.3    6724.9433    48.731617    2.3577398    150214.56    152484.59 
   50300    1005.4104    6476127.3    6724.9433    48.731617    2.3577398     150205.6    152585.16 
   50400    1001.4757    6482931.4    6724.9433    48.731617    2.3577398    150372.45    152742.71 
   50500    1041.8512    6483073.3    6724.9433    48.731617    2.3577398    150360.72    152826.53 
   50600    1018.6843    6482325.2    6724.9433    48.731617    2.3577398     150350.2    152761.18 
   50700    998.42324    6477667.4    6724.9433    48.731617    2.3577398    150246.92    152609.95 
   50800    918.33981      6479400    6724.9433    48.731617    2.3577398    150320.09    152493.58 
   50900    989.95817    6475373.7    6724.9433    48.731617    2.3577398    150193.87    152536.87 
   51000    978.63583    6482426.2    6724.9433    48.731617    2.3577398    150368.94    152685.14 
   51100    971.54263    6488184.8    6724.9433    48.731617    2.3577398    150511.83    152811.24 
   51200    1046.4316    6481704.3    6724.9433    48.731617    2.3577398    150325.39    152802.04 
   51300    1007.0069    6478906.7    6724.9433    48.731617    2.3577398    150274.09    152657.43 
   51400    960.18137    6476128.4    6724.9433    48.731617    2.3577398    150222.91    152495.44 
   51500    995.77129    6472938.1    6724.9433    48.731617    2.3577398    150132.42    152489.18 
   51600    961.37728    6481993.1    6724.9433    48.731617    2.3577398    150365.56    152640.91 
   51700    1030.3106    6483373.2    6724.9433    48.731617    2.3577398    150372.84    152811.34 
   51800    1021.2577    6485305.3    6724.9433    48.731617    2.3577398    150422.09    152839.17 
   51900    1023.4393    6479249.5    6724.9433    48.731617    2.3577398    150274.86     152697.1 
   52000    967.91026    6477186.4    6724.9433    48.731617    2.3577398    150246.13    152536.94 
   52100    950.57828    6476273.2    6724.9433    48.731617    2.3577398    150231.32    152481.11 
   52200    1009.0231    6475784.5    6724.9433    48.731617    2.3577398    150196.09    152584.21 
   52300    1053.9599    6479568.2    6724.9433    48.731617    2.3577398    150270.82     152765.3 
   52400    1036.9483    6484010.2    6724.9433    48.731617    2.3577398    150384.79       152839 
   52500    1028.5175    6480941.4    6724.9433    48.731617    2.3577398    150314.62    152748.88 
   52600    1026.6256    6474109.6    6724.9433    48.731617    2.3577398    150148.52     152578.3 
   52700    968.45429    6474693.1    6724.9433    48.731617    2.3577398    150186.13    152478.23 
   52800     961.0914    6478293.8    6724.9433    48.731617    2.3577398    150276.58    152551.26 
   52900    1041.7448    6479200.5    6724.9433    48.731617    2.3577398    150266.22    152731.78 
   53000    1037.8668    6484421.6    6724.9433    48.731617    2.3577398    150394.17    152850.55 
   53100    1046.8336    6481706.3    6724.9433    48.731617    2.3577398     150324.7    152802.31 
   53200    1019.7253    6476004.3    6724.9433    48.731617    2.3577398    150197.71    152611.16 
   53300    980.88222    6473614.9    6724.9433    48.731617    2.3577398    150154.05    152475.57 
   53400    965.11582    6475482.8    6724.9433    48.731617    2.3577398    150205.64    152489.84 
   53500    978.01433    6481065.5    6724.9433    48.731617    2.3577398    150337.67     152652.4 
   53600    1012.2482    6485517.1    6724.9433    48.731617    2.3577398    150432.01    152827.76 
   53700    1027.1934      6484648    6724.9433    48.731617    2.3577398    150404.96    152836.08 
   53800    1015.3311    6480187.8    6724.9433    48.731617    2.3577398    150300.33    152703.38 
   53900     983.5573      6476184    6724.9433    48.731617    2.3577398    150216.13    152543.98 
   54000    965.16096    6475747.9    6724.9433    48.731617    2.3577398    150212.52    152496.82 
   54100    969.99615      6478468    6724.9433    48.731617    2.3577398    150277.03    152572.78 
   54200    977.17945    6483863.5    6724.9433    48.731617    2.3577398    150405.94     152718.7 
   54300    1033.8283    6482750.8    6724.9433    48.731617    2.3577398    150355.36    152802.18 
   54400    976.27124    6485162.8    6724.9433    48.731617    2.3577398    150437.49    152748.09 
   54500    983.78188    6479596.9    6724.9433    48.731617    2.3577398    150299.58    152627.96 
   54600    968.91109    6477526.8    6724.9433    48.731617    2.3577398    150255.42     152548.6 
   54700    988.32643    6477442.7    6724.9433    48.731617    2.3577398    150245.21    152584.34 
   54800    1004.5398    6480032.7    6724.9433    48.731617    2.3577398    150302.58    152680.08 
   54900    1007.0322    6482792.4    6724.9433    48.731617    2.3577398    150367.57    152750.98 
   55000    1036.5024    6479139.8    6724.9433    48.731617    2.3577398    150267.28    152720.44 
   55100    1001.9672    6478215.4    6724.9433    48.731617    2.3577398    150258.41    152629.83 
   55200    942.21053    6480091.2    6724.9433    48.731617    2.3577398    150326.69    152556.68 
   55300     993.9888    6477454.8    6724.9433    48.731617    2.3577398    150242.31    152594.85 
   55400    1024.8506    6479306.9    6724.9433    48.731617    2.3577398     150275.5    152701.08 
   55500    1030.8777    6481330.9    6724.9433    48.731617    2.3577398    150321.67    152761.51 
   55600    1020.0639    6480965.8    6724.9433    48.731617    2.3577398    150319.25     152733.5 
   55700    972.08105    6481425.7    6724.9433    48.731617    2.3577398    150347.45    152648.14 
   55800    980.64147    6477252.5    6724.9433    48.731617    2.3577398    150242.77    152563.71 
   55900    974.01815    6477033.3    6724.9433    48.731617    2.3577398    150239.93     152545.2 
   56000    968.92328    6480675.5    6724.9433    48.731617    2.3577398    150330.91    152624.12 
   56100    1030.7161    6480437.6    6724.9433    48.731617    2.3577398    150301.36    152740.83 
   56200    1025.3929    6482985.6    6724.9433    48.731617    2.3577398    150364.15    152791.01 
   56300    1017.3279      6480947    6724.9433    48.731617    2.3577398    150318.83     152726.6 
   56400     1004.853    6476807.2    6724.9433    48.731617    2.3577398    150222.34    152600.59 
   56500    952.33852    6477946.3    6724.9433    48.731617    2.3577398    150272.24     152526.2 
   56600    959.59145    6479080.8    6724.9433    48.731617    2.3577398    150295.81    152566.94 
   56700    1001.7795    6480558.9    6724.9433    48.731617    2.3577398    150315.76    152686.73 
   56800    1026.0769    6482792.8    6724.9433    48.731617    2.3577398    150360.49    152788.98 
   56900    1030.8737    6481824.6    6724.9433    48.731617    2.3577398    150335.29    152775.12 
   57000    1007.7541    6478692.2    6724.9433    48.731617    2.3577398    150266.88    152651.99 
   57100    976.13403    6476664.2    6724.9433    48.731617    2.3577398    150230.04    152540.32 
   57200    974.12349    6476852.6    6724.9433    48.731617    2.3577398    150234.69    152540.21 
   57300    993.80983    6479736.4    6724.9433    48.731617    2.3577398    150297.24    152649.36 
   57400    1009.2847    6483298.4    6724.9433    48.731617    2.3577398     150378.7    152767.44 
   57500     1031.152    6482611.8    6724.9433    48.731617    2.3577398    150353.16    152793.65 
   57600    998.42288    6481508.1    6724.9433    48.731617    2.3577398    150339.34    152702.37 
   57700    981.01562    6478035.5    6724.9433    48.731617    2.3577398     150262.2    152584.03 
   57800    939.93514    6479505.6    6724.9433    48.731617    2.3577398    150314.05    152538.66 
   57900    983.93714    6478395.1    6724.9433    48.731617    2.3577398    150269.83    152598.58 
   58000    997.04394    6482731.4    6724.9433    48.731617    2.3577398    150370.09    152729.85 
   58100     1005.325    6484233.7    6724.9433    48.731617    2.3577398    150403.12    152782.48 
   58200    971.63955    6483724.7    6724.9433    48.731617    2.3577398    150403.46     152703.1 
   58300    976.29128    6479037.5    6724.9433    48.731617    2.3577398    150288.89    152599.54 
   58400    959.37688    6478624.8    6724.9433    48.731617    2.3577398    150284.83    152555.45 
   58500    1003.9033    6476799.6    6724.9433    48.731617    2.3577398    150222.33    152598.33 
   58600    977.84541    6482349.6    6724.9433    48.731617    2.3577398    150367.46    152681.79 
   58700    1006.5148      6483485    6724.9433    48.731617    2.3577398    150383.32     152765.5 
   58800     1040.922    6479921.3    6724.9433    48.731617    2.3577398    150284.21    152747.83 
   58900    986.94741    6479959.6    6724.9433    48.731617    2.3577398    150305.95    152641.82 
   59000    991.04292    6475727.1    6724.9433    48.731617    2.3577398    150202.24     152547.8 
   59100     980.2181    6477217.6    6724.9433    48.731617    2.3577398    150242.53    152562.47 
   59200    994.35863    6480244.7    6724.9433    48.731617    2.3577398    150310.36    152663.77 
   59300     1027.161    6481659.7    6724.9433    48.731617    2.3577398    150332.66     152763.7 
   59400    979.91429    6485863.2    6724.9433    48.731617    2.3577398    150451.24    152770.47 
   59500    1017.4557    6478970.2    6724.9433    48.731617    2.3577398     150270.2    152678.28 
   59600    982.15866      6476720    6724.9433    48.731617    2.3577398    150229.38    152553.92 
   59700    950.79352    6477523.8    6724.9433    48.731617    2.3577398    150262.16    152512.47 
   59800    1042.9073    6474403.1    6724.9433    48.731617    2.3577398    150149.29     152617.6 
   59900    1033.7781    6480814.2    6724.9433    48.731617    2.3577398     150308.8    152755.51 
   60000    1044.1884    6482062.1    6724.9433    48.731617    2.3577398    150334.87    152806.22 
   60100    987.92942    6482969.3    6724.9433    48.731617    2.3577398    150378.27    152716.47 
   60200    988.71319    6477191.6    6724.9433    48.731617    2.3577398    150238.13    152578.18 
   60300    975.25181    6476140.8    6724.9433    48.731617    2.3577398       150218    152526.19 
   60400    958.48375    6479810.8    6724.9433    48.731617    2.3577398    150312.77    152581.27 
   60500    990.93273    6482991.9    6724.9433    48.731617    2.3577398     150378.5     152723.8 
   60600     1078.376    6479220.3    6724.9433    48.731617    2.3577398    150252.45    152804.72 
   60700    1035.5917    6480637.9    6724.9433    48.731617    2.3577398    150303.78    152754.78 
   60800    992.71516    6477833.6    6724.9433    48.731617    2.3577398    150252.57    152602.09 
   60900     957.2683    6476687.8    6724.9433    48.731617    2.3577398     150239.4    152505.03 
   61000    966.40998    6477487.9    6724.9433    48.731617    2.3577398    150255.17    152542.43 
   61100    1028.1574    6478551.9    6724.9433    48.731617    2.3577398    150256.01    152689.41 
   61200    999.27517    6485799.4    6724.9433    48.731617    2.3577398    150443.39    152808.44 
   61300    1027.7872    6482719.9    6724.9433    48.731617    2.3577398       150357    152789.53 
   61400    997.87743    6479684.6    6724.9433    48.731617    2.3577398     150295.5    152657.24 
   61500    975.45462      6475893    6724.9433    48.731617    2.3577398    150212.31    152520.98 
   61600    960.24819    6477023.1    6724.9433    48.731617    2.3577398    150245.39    152518.07 
   61700    987.52036    6479499.8    6724.9433    48.731617    2.3577398    150294.76    152631.99 
   61800    1012.4922    6483188.6    6724.9433    48.731617    2.3577398    150374.97     152771.3 
   61900    1058.4006    6481268.4    6724.9433    48.731617    2.3577398    150310.38    152815.36 
   62000    1012.7116    6480757.1    6724.9433    48.731617    2.3577398    150316.11    152712.95 
   62100    958.84617    6479276.4    6724.9433    48.731617    2.3577398    150300.66    152570.02 
   62200    964.26042    6476414.9    6724.9433    48.731617    2.3577398    150228.94    152511.11 
   62300    994.28485      6476639    6724.9433    48.731617    2.3577398    150222.92    152576.15 
   62400    993.97732    6482515.9    6724.9433    48.731617    2.3577398    150366.46    152718.96 
   62500    1056.4062    6481867.3    6724.9433    48.731617    2.3577398    150324.72    152824.98 
   62600    1025.0272    6481546.4    6724.9433    48.731617    2.3577398    150329.16    152755.16 
   62700    989.15728    6477982.5    6724.9433    48.731617    2.3577398    150257.68    152598.78 
   62800    926.73116    6479390.7    6724.9433    48.731617    2.3577398    150316.35    152509.71 
   62900    965.68334    6478113.4    6724.9433    48.731617    2.3577398    150269.72    152555.27 
   63000    1013.7889    6479745.4    6724.9433    48.731617    2.3577398    150290.32    152689.71 
   63100    1001.0372    6484810.5    6724.9433    48.731617    2.3577398    150418.97    152788.19 
   63200    981.00825    6485814.2    6724.9433    48.731617    2.3577398    150451.46    152773.28 
   63300    961.66212    6482245.7    6724.9433    48.731617    2.3577398    150370.45    152646.47 
   63400    965.03487    6477589.3    6724.9433    48.731617    2.3577398    150257.01    152541.02 
   63500    997.03429      6474736    6724.9433    48.731617    2.3577398    150176.81    152536.56 
   63600    967.08204    6481959.8    6724.9433    48.731617    2.3577398    150362.93    152651.79 
   63700    1049.9057    6480121.7    6724.9433    48.731617    2.3577398    150284.74    152769.62 
   63800    987.70878      6485554    6724.9433    48.731617    2.3577398    150442.13    152779.81 
   63900    1003.4091    6480497.8    6724.9433    48.731617    2.3577398    150313.02    152687.86 
   64000    1020.2533    6474392.5    6724.9433    48.731617    2.3577398    150158.79    152573.49 
   64100    974.43334    6475862.4    6724.9433    48.731617    2.3577398    150211.74    152517.99 
   64200    979.43229    6478658.2    6724.9433    48.731617    2.3577398    150278.67    152596.76 
   64300    1018.0163      6481178    6724.9433    48.731617    2.3577398    150323.16    152732.57 
   64400    1074.6349    6479153.3    6724.9433    48.731617    2.3577398    150252.36    152795.76 
   64500    1042.2247    6479332.9    6724.9433    48.731617    2.3577398    150269.55    152736.25 
   64600    1010.5359    6476470.4    6724.9433    48.731617    2.3577398    150212.24    152603.94 
   64700     973.2974    6476051.6    6724.9433    48.731617    2.3577398    150216.56    152520.13 
   64800     972.4714    6477523.1    6724.9433    48.731617    2.3577398    150253.09     152554.7 
   64900    1006.6928    6480536.1    6724.9433    48.731617    2.3577398    150312.52    152695.12 
   65000    1026.6648    6483029.4    6724.9433    48.731617    2.3577398    150364.58    152794.45 
   65100    1022.2933    6482892.6    6724.9433    48.731617    2.3577398    150362.28    152781.81 
   65200    999.69579    6479634.5    6724.9433    48.731617    2.3577398    150292.13    152658.17 
   65300    1006.5753    6473736.1    6724.9433    48.731617    2.3577398    150147.69    152530.01 
   65400    947.20747    6478138.7    6724.9433    48.731617    2.3577398    150278.32    152520.13 
   65500     950.0018    6482530.7    6724.9433    48.731617    2.3577398    150383.45    152631.88 
   65600    1034.8025    6481682.1    6724.9433    48.731617    2.3577398    150329.02    152778.15 
   65700    1020.8646    6483840.5    6724.9433    48.731617    2.3577398    150388.11    152804.25 
   65800    1004.0058    6480429.1    6724.9433    48.731617    2.3577398    150310.03    152686.28 
   65900    1004.1187    6474277.6    6724.9433    48.731617    2.3577398    150162.15    152538.66 
   66000    962.07792    6476679.3    6724.9433    48.731617    2.3577398    150236.53    152513.54 
   66100    976.42121    6479801.7    6724.9433    48.731617    2.3577398    150306.81    152617.76 
   66200    1017.9576    6482792.7    6724.9433    48.731617    2.3577398    150363.17    152772.44 
   66300    1017.8867    6484755.5    6724.9433    48.731617    2.3577398    150410.75    152819.85 
   66400     978.4827    6483207.3    6724.9433    48.731617    2.3577398    150388.27    152704.11 
   66500    948.14304    6480075.1    6724.9433    48.731617    2.3577398    150324.45    152568.48 
   66600    1000.2058    6473408.5    6724.9433    48.731617    2.3577398    150143.22    152510.47 
   66700    968.71739    6478563.2    6724.9433    48.731617    2.3577398    150278.89    152571.61 
   66800    1001.4785    6481403.9    6724.9433    48.731617    2.3577398    150335.88    152706.15 
   66900    1016.6794      6484845    6724.9433    48.731617    2.3577398    150413.79    152820.03 
   67000    1031.6088    6481917.8    6724.9433    48.731617    2.3577398    150335.52    152777.09 
   67100    979.58568    6479702.8    6724.9433    48.731617    2.3577398    150302.94    152621.39 
   67200    938.69107    6479091.7    6724.9433    48.731617    2.3577398    150302.94     152524.6 
   67300    981.74521    6476064.5    6724.9433    48.731617    2.3577398    150213.91    152537.47 
   67400    1001.8148    6478814.2    6724.9433    48.731617    2.3577398    150273.58    152644.64 
   67500    998.56079    6484285.5    6724.9433    48.731617    2.3577398    150406.84     152770.2 
   67600    1011.1277    6484451.5    6724.9433    48.731617    2.3577398    150406.69    152799.79 
   67700    1000.1667    6481197.4    6724.9433    48.731617    2.3577398    150331.75    152698.91 
   67800    955.38916    6479137.3    6724.9433    48.731617    2.3577398    150300.18    152561.36 
   67900    935.97162    6478791.8    6724.9433    48.731617    2.3577398    150298.52    152513.75 
   68000    1022.3258    6475614.3    6724.9433    48.731617    2.3577398    150186.87    152606.47 
   68100    1022.6838    6481018.4    6724.9433    48.731617    2.3577398    150317.83    152738.28 
   68200    1028.3925      6483115    6724.9433    48.731617    2.3577398    150365.92    152799.88 
   68300     1007.319    6481666.3    6724.9433    48.731617    2.3577398    150340.65    152724.73 
   68400     994.0968      6478041    6724.9433    48.731617    2.3577398    150256.91     152609.7 
   68500     965.3542      6476871    6724.9433    48.731617    2.3577398    150240.38    152525.15 
   68600    973.22857    6477835.9    6724.9433    48.731617    2.3577398    150260.55    152563.96 
   68700     965.9307    6483263.5    6724.9433    48.731617    2.3577398    150394.51    152680.63 
   68800    1012.4793    6483573.9    6724.9433    48.731617    2.3577398     150383.9     152780.2 
   68900    1078.5728    6478443.1    6724.9433    48.731617    2.3577398    150234.01    152786.73 
   69000     1023.432    6477901.1    6724.9433    48.731617    2.3577398    150241.28     152663.5 
   69100    955.12641    6478709.7    6724.9433    48.731617    2.3577398     150288.3    152548.85 
   69200    1012.4092    6474091.2    6724.9433    48.731617    2.3577398    150153.35    152549.48 
   69300    1012.9099    6478033.4    6724.9433    48.731617    2.3577398    150248.87    152646.18 
   69400    1032.0499      6481185    6724.9433    48.731617    2.3577398    150318.58     152761.2 
   69500    1037.7569    6481648.2    6724.9433    48.731617    2.3577398    150326.97    152783.09 
   69600    1008.5233    6479896.9    6724.9433    48.731617    2.3577398    150296.48    152683.42 
   69700    988.86109    6475974.9    6724.9433    48.731617    2.3577398    150208.45    152548.85 
   69800    983.43453    6475279.5    6724.9433    48.731617    2.3577398    150194.06    152521.62 
   69900    997.82268    6478148.3    6724.9433    48.731617    2.3577398    150258.54    152620.15 
   70000    1065.9104    6478364.8    6724.9433    48.731617    2.3577398    150237.45    152760.21 
   70100    1037.1708    6482660.5    6724.9433    48.731617    2.3577398    150353.14    152807.88 
   70200    986.08006    6483193.7    6724.9433    48.731617    2.3577398    150384.61    152718.42 
   70300    1012.9244    6475564.4    6724.9433    48.731617    2.3577398    150190.13    152587.48 
   70400      966.866    6476545.8    6724.9433    48.731617    2.3577398    150231.28    152519.63 
   70500    963.77669    6478894.5    6724.9433    48.731617    2.3577398     150290.1    152571.14 
   70600    1010.7725    6480521.1    6724.9433    48.731617    2.3577398    150310.34     152702.6 
   70700    1029.0398    6482830.2    6724.9433    48.731617    2.3577398    150359.86    152795.35 
   70800      1011.83    6483027.1    6724.9433    48.731617    2.3577398    150372.07    152766.83 
   70900    989.64666    6479631.4    6724.9433    48.731617    2.3577398    150297.51    152639.77 
   71000     972.1397    6477022.6    6724.9433    48.731617    2.3577398     150240.4    152541.23 
   71100    1004.1169    6474226.1    6724.9433    48.731617    2.3577398    150160.16    152536.67 
   71200    990.45918    6478997.4    6724.9433    48.731617    2.3577398    150281.24    152625.42 
   71300    1012.9458      6482703    6724.9433    48.731617    2.3577398    150363.46    152760.86 
   71400    1038.9182    6483151.9    6724.9433    48.731617    2.3577398    150362.93     152821.8 
   71500    1026.2129    6480875.5    6724.9433    48.731617    2.3577398    150313.34    152742.14 
   71600     988.9745    6477696.6    6724.9433    48.731617    2.3577398    150249.16    152589.83 
   71700    923.02075      6479061    6724.9433    48.731617    2.3577398    150311.09    152495.66 
   71800    970.98294    6477213.7    6724.9433    48.731617    2.3577398    150245.98    152544.06 
   71900    1009.9201    6479743.1    6724.9433    48.731617    2.3577398    150291.55    152681.79 
   72000    993.39227    6485791.2    6724.9433    48.731617    2.3577398    150445.97     152797.1 
   72100    1060.3246    6480549.9    6724.9433    48.731617    2.3577398    150292.31    152801.85 
   72200    967.02702    6482679.2    6724.9433    48.731617    2.3577398    150379.23    152667.96 
   72300    976.92184    6476016.2    6724.9433    48.731617    2.3577398    150214.23    152526.38 
   72400    979.83028    6475933.8    6724.9433    48.731617    2.3577398    150211.21    152530.24 
   72500    1010.7955    6478490.9    6724.9433    48.731617    2.3577398    150261.23    152653.54 
   72600    1031.9907    6481443.7    6724.9433    48.731617    2.3577398    150325.02     152767.5 
   72700    1004.8068    6483416.6    6724.9433    48.731617    2.3577398     150384.6    152762.74 
   72800    993.50386    6480338.8    6724.9433    48.731617    2.3577398    150313.77    152665.16 
   72900    981.25218    6477610.4    6724.9433    48.731617    2.3577398    150252.12    152574.52 
   73000    954.73447    6479357.7    6724.9433    48.731617    2.3577398       150303    152562.63 
   73100    1012.9074      6477706    6724.9433    48.731617    2.3577398    150241.02    152638.33 
   73200    1042.4532    6478920.4    6724.9433    48.731617    2.3577398    150260.01    152727.25 
   73300     996.7785    6483755.9    6724.9433    48.731617    2.3577398    150393.34    152752.48 
   73400    973.52501    6483018.4    6724.9433    48.731617    2.3577398    150385.68    152689.79 
   73500    994.04138    6477502.9    6724.9433    48.731617    2.3577398    150244.92    152597.58 
   73600    956.47638    6478965.1    6724.9433    48.731617    2.3577398    150294.33    152558.08 
   73700    1031.0971    6474963.1    6724.9433    48.731617    2.3577398    150167.51    152607.88 
   73800    991.95058    6481363.5    6724.9433    48.731617    2.3577398    150338.62    152686.33 
   73900    1007.7832    6483218.9    6724.9433    48.731617    2.3577398     150377.6    152762.79 
   74000    1037.0364    6479697.8    6724.9433    48.731617    2.3577398    150280.66    152735.08 
   74100    995.25187    6478988.8    6724.9433    48.731617    2.3577398    150280.26    152635.78 
   74200    962.10495    6478157.1    6724.9433    48.731617    2.3577398    150271.95    152549.03 
   74300     957.0781    6479989.6    6724.9433    48.731617    2.3577398    150318.95    152584.13 
   74400    987.04158    6481926.3    6724.9433    48.731617    2.3577398    150353.79    152689.88 
   74500    1024.2969    6482193.9    6724.9433    48.731617    2.3577398    150344.93     152769.2 
   74600    1025.0005    6481028.1    6724.9433    48.731617    2.3577398    150317.87     152743.8 
   74700    1001.6156    6478790.6    6724.9433    48.731617    2.3577398    150273.02     152643.6 
   74800    979.59728      6476272    6724.9433    48.731617    2.3577398    150220.03     152538.5 
   74900    979.68682    6476030.4    6724.9433    48.731617    2.3577398    150214.33    152533.02 
   75000    973.50464    6481382.3    6724.9433    48.731617    2.3577398    150346.31    152650.37 
   75100    1008.7662      6483982    6724.9433    48.731617    2.3577398    150395.74    152783.25 
   75200    1013.7411    6484033.8    6724.9433    48.731617    2.3577398    150395.49    152794.77 
   75300    1017.5179      6479152    6724.9433    48.731617    2.3577398    150273.93    152682.16 
   75400    1043.6967    6472005.7    6724.9433    48.731617    2.3577398     150091.3    152561.49 
   75500    953.88927    6477500.2    6724.9433    48.731617    2.3577398    150259.42    152517.05 
   75600     958.5165    6480890.8    6724.9433    48.731617    2.3577398    150339.72     152608.3 
   75700     1023.983    6481758.1    6724.9433    48.731617    2.3577398    150335.16    152758.69 
[...]
  381700    962.64143    6477826.8    6724.9433    48.731617    2.3577398    150264.06    152542.41 
  381800    1022.4859    6479442.6    6724.9433    48.731617    2.3577398    150280.05    152700.03 
  381900    1033.8163    6481665.2    6724.9433    48.731617    2.3577398    150328.28    152775.08 
  382000    1014.2475    6480956.5    6724.9433    48.731617    2.3577398       150320    152720.48 
  382100    995.01209    6476774.4    6724.9433    48.731617    2.3577398    150226.91    152581.86 
  382200    981.45916    6475771.6    6724.9433    48.731617    2.3577398    150208.18    152531.06 
  382300    992.05266    6476846.8    6724.9433    48.731617    2.3577398    150229.85     152577.8 
  382400    1032.3945    6476146.9    6724.9433    48.731617    2.3577398    150197.17     152640.6 
  382500    1026.8391    6480101.7    6724.9433    48.731617    2.3577398    150294.35    152724.63 
  382600    1029.7344    6481724.2    6724.9433    48.731617    2.3577398    150331.27    152768.41 
  382700     982.0846    6480626.7    6724.9433    48.731617    2.3577398    150324.49    152648.85 
  382800    957.04069    6477502.9    6724.9433    48.731617    2.3577398    150258.13    152523.22 
  382900    1008.1613    6474387.2    6724.9433    48.731617    2.3577398     150162.4    152548.48 
  383000    983.39271    6482129.5    6724.9433    48.731617    2.3577398    150360.25    152687.71 
  383100    1040.9205    6479842.9    6724.9433    48.731617    2.3577398    150283.08    152746.69 
  383200    1001.6947    6481724.6    6724.9433    48.731617    2.3577398    150343.76    152714.54 
  383300    1012.7935    6478038.5    6724.9433    48.731617    2.3577398    150249.49    152646.53 
  383400    1014.5042    6477084.4    6724.9433    48.731617    2.3577398    150226.37    152627.47 
  383500    952.11687    6482744.8    6724.9433    48.731617    2.3577398    150387.85    152641.28 
  383600    1005.2772    6484552.2    6724.9433    48.731617    2.3577398    150411.45    152790.71 
  383700     1035.748    6487220.3    6724.9433    48.731617    2.3577398     150463.9    152915.27 
  383800    1056.5455    6479669.2    6724.9433    48.731617    2.3577398     150272.4       152773 
  383900    973.82522    6481070.3    6724.9433    48.731617    2.3577398    150337.86    152642.67 
  384000    1020.6076    6475586.3    6724.9433    48.731617    2.3577398    150186.42    152601.96 
  384100    1023.1011    6476596.4    6724.9433    48.731617    2.3577398    150211.02    152632.46 
  384200    1037.8833    6480896.2    6724.9433    48.731617    2.3577398    150309.91    152766.34 
  384300    1080.6959    6480738.1    6724.9433    48.731617    2.3577398    150289.27    152847.03 
  384400    1038.6415    6479198.8    6724.9433    48.731617    2.3577398    150267.62    152725.84 
  384500    1013.3833    6477234.6    6724.9433    48.731617    2.3577398    150230.19    152628.63 
  384600    976.13987    6480186.6    6724.9433    48.731617    2.3577398    150316.56    152626.86 
  384700    1010.8843    6479143.1    6724.9433    48.731617    2.3577398    150276.09    152668.62 
  384800    1019.8703    6480714.2    6724.9433    48.731617    2.3577398    150310.93    152724.73 
  384900    1029.1447    6482146.2    6724.9433    48.731617    2.3577398    150343.87    152779.61 
  385000    1019.0256    6481143.8    6724.9433    48.731617    2.3577398    150322.99    152734.78 
  385100    957.94246    6479846.7    6724.9433    48.731617    2.3577398     150314.9    152582.13 
  385200    982.68777    6476867.3    6724.9433    48.731617    2.3577398    150231.83    152557.62 
  385300    1006.3995    6478157.4    6724.9433    48.731617    2.3577398    150255.87    152637.78 
  385400    1020.6545    6483662.5    6724.9433    48.731617    2.3577398    150381.68    152797.32 
  385500    1032.1077    6483262.9    6724.9433    48.731617    2.3577398    150369.63    152812.39 
  385600    1004.2128    6482881.9    6724.9433    48.731617    2.3577398    150370.57     152747.3 
  385700    1025.2864    6477981.5    6724.9433    48.731617    2.3577398    150243.87    152670.48 
  385800    1009.0809      6475936    6724.9433    48.731617    2.3577398    150200.39    152588.65 
  385900    1020.6605    6474841.6    6724.9433    48.731617    2.3577398    150169.32    152584.98 
  386000    1016.2198    6481904.3    6724.9433    48.731617    2.3577398    150342.61    152747.77 
  386100    1063.0566      6481499    6724.9433    48.731617    2.3577398    150313.15    152829.16 
  386200    1005.8002    6482097.4    6724.9433    48.731617    2.3577398    150351.62    152732.11 
  386300    984.36235    6480027.7    6724.9433    48.731617    2.3577398    150309.58    152639.33 
  386400    991.03232      6479227    6724.9433    48.731617    2.3577398     150287.5    152633.04 
  386500    991.37212    6479539.6    6724.9433    48.731617    2.3577398    150294.31    152640.65 
  386600    1006.2862    6479944.8    6724.9433    48.731617    2.3577398    150297.86     152679.5 
  386700    1008.0081      6486078    6724.9433    48.731617    2.3577398    150446.53    152832.24 
  386800    1048.8294    6483580.6    6724.9433    48.731617    2.3577398    150370.35    152852.68 
  386900    1012.8798    6480048.6    6724.9433    48.731617    2.3577398     150297.9    152695.15 
  387000    998.46622    6478539.8    6724.9433    48.731617    2.3577398       150267    152630.13 
  387100    1022.0384    6476311.8    6724.9433    48.731617    2.3577398    150204.37     152623.3 
  387200    1001.2671    6478132.7    6724.9433    48.731617    2.3577398    150256.45    152626.21 
  387300    1035.4766    6478319.7    6724.9433    48.731617    2.3577398    150247.42    152698.15 
  387400    1027.4647      6483658    6724.9433    48.731617    2.3577398    150380.77    152812.53 
  387500    1031.0945    6482402.7    6724.9433    48.731617    2.3577398       150348    152788.36 
  387600      984.731      6479439    6724.9433    48.731617    2.3577398    150294.47     152625.1 
  387700    1007.0241    6475816.5    6724.9433    48.731617    2.3577398    150199.64    152583.03 
  387800    972.57509    6480147.6    6724.9433    48.731617    2.3577398    150317.15       152619 
  387900     1008.086    6480246.9    6724.9433    48.731617    2.3577398    150305.24    152691.14 
  388000    1040.7894      6482615    6724.9433    48.731617    2.3577398    150349.27    152812.58 
  388100    1088.9792    6484602.1    6724.9433    48.731617    2.3577398     150378.6    152955.95 
  388200    1046.1908    6483612.4    6724.9433    48.731617    2.3577398    150372.05    152848.13 
  388300    1035.0567    6477569.6    6724.9433    48.731617    2.3577398    150228.37     152678.1 
  388400    931.33108    6483430.1    6724.9433    48.731617    2.3577398    150413.46     152617.7 
  388500    977.70615    6479395.2    6724.9433    48.731617    2.3577398    150295.57    152609.56 
  388600    1034.9015    6476468.9    6724.9433    48.731617    2.3577398    150202.78    152652.14 
  388700    1049.5955    6479804.8    6724.9433    48.731617    2.3577398    150277.93    152762.07 
  388800    1061.9596    6481433.5    6724.9433    48.731617    2.3577398    150312.98    152826.38 
  388900    1008.7963    6478880.2    6724.9433    48.731617    2.3577398    150272.48    152660.06 
  389000    989.38331    6477142.1    6724.9433    48.731617    2.3577398     150236.8    152578.43 
  389100    1003.3763    6477175.3    6724.9433    48.731617    2.3577398    150232.95    152607.71 
  389200    992.91118    6481495.7    6724.9433    48.731617    2.3577398    150341.45    152691.44 
  389300    993.34047    6486237.2    6724.9433    48.731617    2.3577398    150455.55    152806.55 
  389400    1040.7696    6485021.6    6724.9433    48.731617    2.3577398    150408.63    152871.88 
  389500    986.92927    6484038.7    6724.9433    48.731617    2.3577398    150405.11    152740.93 
  389600    993.26574    6477755.9    6724.9433    48.731617    2.3577398    150249.07    152599.89 
  389700    988.83519    6476835.6    6724.9433    48.731617    2.3577398    150229.62    152569.96 
  389800    986.87044    6479639.7    6724.9433    48.731617    2.3577398    150298.19    152633.88 
  389900    1041.5584    6480491.8    6724.9433    48.731617    2.3577398    150298.28     152763.4 
  390000    1043.0678    6481912.8    6724.9433    48.731617    2.3577398    150332.02    152800.72 
  390100    999.50659    6479044.5    6724.9433    48.731617    2.3577398    150279.84    152645.43 
  390200    1003.3177    6474032.8    6724.9433    48.731617    2.3577398    150155.05    152529.67 
  390300     1023.049    6474453.8    6724.9433    48.731617    2.3577398    150159.57    152580.89 
  390400    1047.8234    6476913.1    6724.9433    48.731617    2.3577398    150208.23    152688.18 
  390500    1026.1017    6481566.4    6724.9433    48.731617    2.3577398    150330.22    152758.76 
  390600    1016.0887    6481184.9    6724.9433    48.731617    2.3577398    150324.04    152728.88 
  390700    975.59915    6476180.8    6724.9433    48.731617    2.3577398    150220.34    152529.36 
  390800    995.19501    6473763.3    6724.9433    48.731617    2.3577398    150152.14    152507.53 
  390900    993.52462    6477699.5    6724.9433    48.731617    2.3577398    150248.64    152600.07 
  391000    1033.8545    6477958.2    6724.9433    48.731617    2.3577398    150239.97    152686.86 
  391100    1015.7132    6480417.8    6724.9433    48.731617    2.3577398    150306.03    152709.98 
  391200    997.16495    6480974.6    6724.9433    48.731617    2.3577398    150326.18    152686.24 
  391300    1009.3783    6479145.7    6724.9433    48.731617    2.3577398    150276.86    152665.82 
  391400    991.03779    6480126.1    6724.9433    48.731617    2.3577398    150308.54    152654.09 
  391500    1021.4627    6478076.4    6724.9433    48.731617    2.3577398    150246.44       152664 
  391600     995.5307    6480606.3    6724.9433    48.731617    2.3577398    150318.22    152674.41 
  391700    1011.5747    6478514.7    6724.9433    48.731617    2.3577398    150261.78    152655.94 
  391800    990.72924    6478223.4    6724.9433    48.731617    2.3577398    150264.17    152608.99 
  391900    970.72244    6478313.7    6724.9433    48.731617    2.3577398    150272.28    152569.75 
  392000    980.38001    6479655.7    6724.9433    48.731617    2.3577398    150301.78    152622.11 
  392100    1014.9157    6482532.2    6724.9433    48.731617    2.3577398    150357.36    152759.43 
  392200    1029.0647    6482847.9    6724.9433    48.731617    2.3577398    150359.39    152794.94 
  392300    1013.2911    6479111.6    6724.9433    48.731617    2.3577398    150275.16    152673.38 
  392400    966.20066    6477562.2    6724.9433    48.731617    2.3577398    150255.99    152542.76 
  392500    997.05546    6476321.7    6724.9433    48.731617    2.3577398    150214.84    152574.63 
  392600    981.94698    6481598.4    6724.9433    48.731617    2.3577398    150347.94    152671.98 
  392700    1021.3501      6481129    6724.9433    48.731617    2.3577398    150321.31    152738.61 
  392800    988.23255    6482344.1    6724.9433    48.731617    2.3577398    150363.58     152702.5 
  392900    976.15135    6475585.3    6724.9433    48.731617    2.3577398    150204.52    152514.84 
  393000    955.62545    6476663.5    6724.9433    48.731617    2.3577398    150239.17    152500.91 
  393100     1011.571    6476142.1    6724.9433    48.731617    2.3577398    150205.55     152599.7 
  393200    990.67224    6481250.2    6724.9433    48.731617    2.3577398    150335.57    152680.26 
  393300    994.80074    6481367.4    6724.9433    48.731617    2.3577398    150336.43    152690.89 
  393400    1004.9857    6479658.8    6724.9433    48.731617    2.3577398    150292.49    152671.06 
  393500    967.37677      6479972    6724.9433    48.731617    2.3577398    150315.65     152605.2 
  393600    945.19046    6475276.5    6724.9433    48.731617    2.3577398    150208.62    152445.66 
  393700    999.56753      6471209    6724.9433    48.731617    2.3577398    150088.25    152453.99 
  393800    1013.8064    6476398.5    6724.9433    48.731617    2.3577398    150210.41    152609.85 
  393900    996.90379    6480241.8    6724.9433    48.731617    2.3577398     150308.4    152667.84 
  394000    1018.0558    6479900.2    6724.9433    48.731617    2.3577398    150292.22    152701.72 
  394100    1006.3054      6481047    6724.9433    48.731617    2.3577398     150325.4    152707.08 
  394200    957.45568    6480498.5    6724.9433    48.731617    2.3577398    150330.65    152596.72 
  394300    985.52413    6474258.8    6724.9433    48.731617    2.3577398    150169.18    152501.68 
  394400    1011.5214    6475121.8    6724.9433    48.731617    2.3577398    150178.87     152572.9 
  394500     1022.874    6480440.2    6724.9433    48.731617    2.3577398    150303.62    152724.52 
  394600    1062.8199    6477554.2    6724.9433    48.731617    2.3577398     150218.1    152733.54 
  394700    1007.1049    6479121.7    6724.9433    48.731617    2.3577398    150279.09    152662.66 
  394800    978.71072    6478654.5    6724.9433    48.731617    2.3577398    150278.27    152594.65 
  394900    969.40257    6477342.6    6724.9433    48.731617    2.3577398    150250.71    152545.06 
  395000    941.77247    6479259.8    6724.9433    48.731617    2.3577398    150307.38    152536.33 
  395100    1042.9138    6475887.6    6724.9433    48.731617    2.3577398    150185.48    152653.81 
  395200    1023.3914      6481616    6724.9433    48.731617    2.3577398    150333.16    152755.28 
  395300    1048.2397    6479958.1    6724.9433    48.731617    2.3577398    150282.88    152763.82 
  395400    1017.0537      6477057    6724.9433    48.731617    2.3577398    150224.08    152631.21 
  395500    950.08148    6477360.8    6724.9433    48.731617    2.3577398    150258.07    152506.69 
  395600    982.40875    6477084.7    6724.9433    48.731617    2.3577398    150239.13    152564.26 
  395700    1006.4776    6479399.5    6724.9433    48.731617    2.3577398    150285.33    152667.43 
  395800    1051.6527    6477564.9    6724.9433    48.731617    2.3577398    150222.81    152711.82 
  395900    1018.1243    6479384.5    6724.9433    48.731617    2.3577398    150279.67    152689.33 
  396000    983.19488    6480804.2    6724.9433    48.731617    2.3577398    150328.13    152655.12 
  396100    952.36328    6482464.1    6724.9433    48.731617    2.3577398    150380.33    152634.35 
  396200    1001.9187    6478795.9    6724.9433    48.731617    2.3577398    150271.64    152642.95 
  396300     953.7648    6483412.8    6724.9433    48.731617    2.3577398    150403.38    152660.72 
  396400    997.47263    6480834.9    6724.9433    48.731617    2.3577398    150323.85    152684.63 
  396500    995.77124    6480770.8    6724.9433    48.731617    2.3577398    150323.97    152680.73 
  396600    990.28015    6478697.8    6724.9433    48.731617    2.3577398    150274.58    152618.34 
  396700      996.444      6474803    6724.9433    48.731617    2.3577398    150178.28    152536.63 
  396800    985.72257    6475621.5    6724.9433    48.731617    2.3577398    150202.06    152535.04 
  396900    1001.9639    6481088.1    6724.9433    48.731617    2.3577398    150327.13    152698.55 
  397000    1004.0263      6483728    6724.9433    48.731617    2.3577398    150390.94    152767.23 
  397100    1015.8815    6481122.9    6724.9433    48.731617    2.3577398     150323.1    152727.45 
  397200    985.76629    6478554.6    6724.9433    48.731617    2.3577398    150273.23     152606.3 
  397300    977.93345    6476613.8    6724.9433    48.731617    2.3577398     150229.3    152543.83 
  397400    990.96861    6478737.9    6724.9433    48.731617    2.3577398    150275.28    152620.67 
  397500    1032.6006      6484726    6724.9433    48.731617    2.3577398    150405.18     152849.1 
  397600    1043.0581    6481190.8    6724.9433    48.731617    2.3577398    150314.57    152783.24 
  397700    1009.1888    6477836.2    6724.9433    48.731617    2.3577398    150246.76    152635.27 
  397800    958.15017    6479423.1    6724.9433    48.731617    2.3577398    150304.84    152572.55 
  397900    983.10046    6478757.3    6724.9433    48.731617    2.3577398     150278.7    152605.46 
  398000    1000.5143    6483629.3    6724.9433    48.731617    2.3577398    150389.88    152757.86 
  398100    1025.2227    6483882.4    6724.9433    48.731617    2.3577398    150386.45    152812.91 
  398200    991.87844    6483676.8    6724.9433    48.731617    2.3577398    150394.29    152741.83 
  398300     1004.749    6480514.7    6724.9433    48.731617    2.3577398    150312.76    152690.76 
  398400     1002.832      6478876    6724.9433    48.731617    2.3577398    150274.04    152647.51 
  398500    986.91856    6477968.3    6724.9433    48.731617    2.3577398    150258.17    152593.97 
  398600    962.91322    6477641.8    6724.9433    48.731617    2.3577398    150260.35    152539.33 
  398700    992.93074    6475941.9    6724.9433    48.731617    2.3577398    150207.53    152557.56 
  398800    1025.0035    6479015.2    6724.9433    48.731617    2.3577398    150269.14    152695.08 
  398900    1004.2679    6484042.5    6724.9433    48.731617    2.3577398    150397.93     152774.8 
  399000    1022.2701    6480803.6    6724.9433    48.731617    2.3577398     150313.2    152732.67 
  399100    997.45553    6476209.9    6724.9433    48.731617    2.3577398    150211.87    152572.61 
  399200    961.55615    6477297.3    6724.9433    48.731617    2.3577398    150251.61    152527.39 
  399300    1000.8338    6476398.9    6724.9433    48.731617    2.3577398    150214.84    152583.58 
  399400    1016.9603    6478779.5    6724.9433    48.731617    2.3577398    150266.66    152673.56 
  399500    1018.9298    6481575.4    6724.9433    48.731617    2.3577398    150332.37    152743.94 
  399600    1019.0873    6481005.2    6724.9433    48.731617    2.3577398    150319.77    152731.71 
  399700    976.71515      6475711    6724.9433    48.731617    2.3577398    150206.88    152518.53 
  399800     959.9464    6476226.7    6724.9433    48.731617    2.3577398     150226.5    152498.47 
  399900    992.78197    6478148.7    6724.9433    48.731617    2.3577398    150258.91    152608.59 
  400000    1045.0277    6478068.8    6724.9433    48.731617    2.3577398    150237.65    152710.98 
  400100    954.58669    6485453.5    6724.9433    48.731617    2.3577398    150451.49    152710.77 
Loop time of 422.807 on 1 procs for 400000 steps with 795 atoms

Performance: 20.435 ns/day, 1.174 hours/ns, 946.059 timesteps/s
99.8% CPU use with 1 MPI tasks x no OpenMP threads

MPI task timing breakdown:
Section |  min time  |  avg time  |  max time  |%varavg| %total
---------------------------------------------------------------
Pair    | 369.92     | 369.92     | 369.92     |   0.0 | 87.49
Neigh   | 21.893     | 21.893     | 21.893     |   0.0 |  5.18
Comm    | 18.024     | 18.024     | 18.024     |   0.0 |  4.26
Output  | 1.4664     | 1.4664     | 1.4664     |   0.0 |  0.35
Modify  | 7.981      | 7.981      | 7.981      |   0.0 |  1.89
Other   |            | 3.521      |            |       |  0.83

Nlocal:            795 ave         795 max         795 min
Histogram: 1 0 0 0 0 0 0 0 0 0
Nghost:           6211 ave        6211 max        6211 min
Histogram: 1 0 0 0 0 0 0 0 0 0
Neighs:          53492 ave       53492 max       53492 min
Histogram: 1 0 0 0 0 0 0 0 0 0

Total # of neighbors = 53492
Ave neighs/atom = 67.285535
Neighbor list builds = 11064
Dangerous builds = 32

write_data graphene_single_layer_LJ_795C_after_temp_1000K_nv.data ### MODIFY FILE NAME ###
System init for write_data ...
  generated 0 of 0 mixed pair_coeff terms from geometric mixing rule
Total wall time: 0:07:03
