# System definition
read_data graphene_single_layer_x-45_y_45_795_C_nv.data  ### MODIFY FILE NAME ###
Reading data file ...
  orthogonal box = (-1.4464652 -1.4423034 -1.42) to (47.285152 47.149102 1.42)
  1 by 1 by 1 MPI processor grid
  reading atoms ...
  795 atoms
  reading velocities ...
  795 velocities
  read_data CPU = 0.020 seconds
pair_style lj/cut 6
pair_coeff      1 1 0.066047 3.4

# Virtual force wall to keep the cylinder shape
#region myCylinder cylinder z 0. 0. 20.3 -22.079997 505.920003 units box
#fix wall all wall/region myCylinder lj93 1.0 1.0 2.5

# Minimization
timestep 0.25
thermo 100
thermo_style custom step temp press vol lx density pe etotal
dump 2 all custom 1000 graphene_single_layer_LJ_795C_after_temp_1200K_nv.lammpstrj id type x y z ### MODIFY FILE NAME ###
min_style cg
minimize 1.0e-6 1.0e-6 100 1000
WARNING: Using 'neigh_modify every 1 delay 0 check yes' setting during minimization (../min.cpp:187)
  generated 0 of 0 mixed pair_coeff terms from geometric mixing rule
Neighbor list info ...
  update every 1 steps, delay 0 steps, check yes
  max neighbors/atom: 10000, page size: 100000
  master list distance cutoff = 6.4
  ghost atom cutoff = 6.4
  binsize = 3.2, bins = 16 16 1
  1 neighbor lists, perpetual/occasional/extra = 1 0 0
  (1) pair lj/cut, perpetual
      attributes: half, newton on
      pair build: half/bin/atomonly/newton
      stencil: half/bin/3d
      bin: standard
Per MPI rank memory allocation (min/avg/max) = 5.847 | 5.847 | 5.847 Mbytes
Step Temp Press Volume Lx Density PotEng TotEng 
       0          923 3.5764745e+08    6724.9433    48.731617    2.3577398    8739313.6    8741498.1 
     100          923     47792497    6724.9433    48.731617    2.3577398    1156645.3    1158829.8 
Loop time of 0.201379 on 1 procs for 100 steps with 795 atoms

100.0% CPU use with 1 MPI tasks x no OpenMP threads

Minimization stats:
  Stopping criterion = max iterations
  Energy initial, next-to-last, final = 
       8739313.5743934   1166159.30364263   1156645.25969717
  Force two-norm initial, final = 757147.49 41890.076
  Force max component initial, final = 127132.22 10243.229
  Final line search alpha, max atom move = 3.9224736e-06 0.040178794
  Iterations, force evaluations = 100 123

MPI task timing breakdown:
Section |  min time  |  avg time  |  max time  |%varavg| %total
---------------------------------------------------------------
Pair    | 0.13696    | 0.13696    | 0.13696    |   0.0 | 68.01
Neigh   | 0.054899   | 0.054899   | 0.054899   |   0.0 | 27.26
Comm    | 0.0055968  | 0.0055968  | 0.0055968  |   0.0 |  2.78
Output  | 6.63e-05   | 6.63e-05   | 6.63e-05   |   0.0 |  0.03
Modify  | 0          | 0          | 0          |   0.0 |  0.00
Other   |            | 0.003858   |            |       |  1.92

Nlocal:            795 ave         795 max         795 min
Histogram: 1 0 0 0 0 0 0 0 0 0
Nghost:           5526 ave        5526 max        5526 min
Histogram: 1 0 0 0 0 0 0 0 0 0
Neighs:          50620 ave       50620 max       50620 min
Histogram: 1 0 0 0 0 0 0 0 0 0

Total # of neighbors = 50620
Ave neighs/atom = 63.672956
Neighbor list builds = 37
Dangerous builds = 0
#timestep 0.25
fix 1 all nvt temp 1200.0 1200.0 $(100.0*dt) ### MODIFY INITIAL TEMP, FINAL TEMP ###
fix 1 all nvt temp 1200.0 1200.0 25 
run 400000
  generated 0 of 0 mixed pair_coeff terms from geometric mixing rule
Per MPI rank memory allocation (min/avg/max) = 4.725 | 4.725 | 4.725 Mbytes
Step Temp Press Volume Lx Density PotEng TotEng 
     100          923     47792497    6724.9433    48.731617    2.3577398    1156645.3    1158829.8 
     200    25266.064     11346508    6724.9433    48.731617    2.3577398    259038.47    318837.25 
     300    6466.8858    8515237.3    6724.9433    48.731617    2.3577398    197559.95    212865.54 
     400    3020.6365    7819119.8    6724.9433    48.731617    2.3577398    181990.64    189139.77 
     500    1821.4829    7544485.1    6724.9433    48.731617    2.3577398    175792.77    180103.79 
     600    1478.6283    7383790.4    6724.9433    48.731617    2.3577398    172029.71    175529.27 
     700    1460.9946    7242345.4    6724.9433    48.731617    2.3577398    168601.76    172059.59 
     800     1190.971    7154945.4    6724.9433    48.731617    2.3577398    166585.87    169404.62 
     900    1197.3518      7081662    6724.9433    48.731617    2.3577398    164805.59    167639.44 
    1000    1372.0527    7002097.8    6724.9433    48.731617    2.3577398    162810.04    166057.36 
    1100    1246.7435    6919070.9    6724.9433    48.731617    2.3577398    160847.66     163798.4 
    1200    1110.1399    6862848.9    6724.9433    48.731617    2.3577398    159534.87    162162.31 
    1300    1126.0264      6819551    6724.9433    48.731617    2.3577398    158477.69    161142.73 
    1400    998.28041    6804034.2    6724.9433    48.731617    2.3577398    158152.93    160515.62 
    1500    1149.7585    6787791.8    6724.9433    48.731617    2.3577398    157701.17    160422.38 
    1600    1327.9488    6766883.2    6724.9433    48.731617    2.3577398    157126.02    160268.96 
    1700    1130.8497    6750935.1    6724.9433    48.731617    2.3577398     156816.6    159493.05 
    1800    1138.9756      6727560    6724.9433    48.731617    2.3577398    156245.48    158941.17 
    1900    1143.1369    6715750.2    6724.9433    48.731617    2.3577398    155959.34    158664.88 
    2000    1237.0842    6698989.2    6724.9433    48.731617    2.3577398    155517.07    158444.95 
    2100     1268.642    6667480.8    6724.9433    48.731617    2.3577398    154740.39    157742.96 
    2200    1047.5958    6650119.7    6724.9433    48.731617    2.3577398    154403.63    156883.04 
    2300     1003.016    6642792.7    6724.9433    48.731617    2.3577398    154242.95    156616.85 
    2400    1060.5814    6654797.8    6724.9433    48.731617    2.3577398     154512.7    157022.84 
    2500    1251.1499      6675674    6724.9433    48.731617    2.3577398    154944.36    157905.54 
    2600    1421.6895    6688776.8    6724.9433    48.731617    2.3577398    155197.07    158561.87 
    2700    1376.5208    6675509.3    6724.9433    48.731617    2.3577398    154894.79    158152.69 
    2800    1177.8045    6652454.8    6724.9433    48.731617    2.3577398    154412.13    157199.71 
    2900    1052.1787    6637968.6    6724.9433    48.731617    2.3577398    154109.03    156599.29 
    3000    1117.5305    6635138.5    6724.9433    48.731617    2.3577398    154016.11    156661.04 
    3100    1221.2955    6648550.1    6724.9433    48.731617    2.3577398    154300.27    157190.79 
    3200    1229.7103    6665633.7    6724.9433    48.731617    2.3577398    154708.47     157618.9 
    3300    1324.1927    6660484.5    6724.9433    48.731617    2.3577398    154550.28    157684.33 
    3400    1277.0939    6642603.4    6724.9433    48.731617    2.3577398    154134.97    157157.54 
    3500    1120.4287    6625138.5    6724.9433    48.731617    2.3577398    153769.45    156421.24 
    3600    1131.4334    6612321.6    6724.9433    48.731617    2.3577398    153455.34    156133.18 
    3700    1130.4123    6619120.8    6724.9433    48.731617    2.3577398     153621.6    156297.02 
    3800    1202.8784    6634615.8    6724.9433    48.731617    2.3577398    153963.71    156810.64 
    3900    1320.5851    6646601.8    6724.9433    48.731617    2.3577398    154212.53    157338.04 
    4000    1376.2106    6638170.5    6724.9433    48.731617    2.3577398    153986.21    157243.37 
    4100    1186.9512    6622504.5    6724.9433    48.731617    2.3577398    153678.81    156488.04 
    4200    1047.0112    6607105.7    6724.9433    48.731617    2.3577398    153358.18    155836.21 
    4300     1022.251    6605208.7    6724.9433    48.731617    2.3577398    153323.53    155742.96 
    4400    1151.9328    6617811.5    6724.9433    48.731617    2.3577398     153579.8    156306.15 
    4500    1304.4534    6639716.9    6724.9433    48.731617    2.3577398    154049.97     157137.3 
    4600    1318.9853    6650552.7    6724.9433    48.731617    2.3577398    154308.49    157430.21 
    4700    1296.9011    6631634.3    6724.9433    48.731617    2.3577398    153859.15    156928.61 
    4800    1168.5682    6610382.8    6724.9433    48.731617    2.3577398    153392.02    156157.74 
    4900    1010.4691    6605621.3    6724.9433    48.731617    2.3577398    153337.49    155729.03 
    5000    1067.1813    6609629.7    6724.9433    48.731617    2.3577398    153415.43    155941.19 
    5100    1252.2577    6625599.7    6724.9433    48.731617    2.3577398     153728.3     156692.1 
    5200    1347.2012      6645859    6724.9433    48.731617    2.3577398    154183.18    157371.69 
    5300    1353.9732    6639473.6    6724.9433    48.731617    2.3577398    154026.41    157230.95 
    5400    1176.7903    6623757.7    6724.9433    48.731617    2.3577398    153714.63    156499.81 
    5500    1048.5207    6611074.4    6724.9433    48.731617    2.3577398    153455.48    155937.08 
    5600    1038.9811      6609497    6724.9433    48.731617    2.3577398    153421.07    155880.09 
    5700    1104.6041    6622814.1    6724.9433    48.731617    2.3577398    153719.72    156334.06 
    5800    1335.9979    6632144.4    6724.9433    48.731617    2.3577398    153853.93    157015.92 
    5900    1346.6526    6640505.6    6724.9433    48.731617    2.3577398    154054.46    157241.67 
    6000    1252.5643    6630981.4    6724.9433    48.731617    2.3577398    153859.78    156824.31 
    6100    1115.9679    6615624.9    6724.9433    48.731617    2.3577398    153539.87     156181.1 
    6200    1086.6428    6607527.4    6724.9433    48.731617    2.3577398     153355.2    155927.03 
    6300    1137.7406    6613634.9    6724.9433    48.731617    2.3577398    153484.44     156177.2 
    6400    1235.8543    6627562.8    6724.9433    48.731617    2.3577398    153783.64    156708.61 
    6500    1376.4704    6634711.7    6724.9433    48.731617    2.3577398    153901.42     157159.2 
    6600    1269.7465    6634858.8    6724.9433    48.731617    2.3577398    153947.31     156952.5 
    6700    1176.8331    6620038.7    6724.9433    48.731617    2.3577398    153623.78    156409.07 
    6800    1109.2643      6611841    6724.9433    48.731617    2.3577398    153450.52    156075.89 
    6900    1114.8804    6615428.1    6724.9433    48.731617    2.3577398    153536.41    156175.07 
    7000    1185.8725    6627117.7    6724.9433    48.731617    2.3577398    153791.27    156597.95 
    7100    1282.3771    6631741.7    6724.9433    48.731617    2.3577398    153866.58    156901.66 
    7200    1241.5699    6633107.2    6724.9433    48.731617    2.3577398    153915.61    156854.11 
    7300    1181.5663    6625480.9    6724.9433    48.731617    2.3577398    153753.01     156549.5 
    7400    1158.1027    6614311.2    6724.9433    48.731617    2.3577398    153492.22    156233.18 
    7500    1084.6662    6619368.5    6724.9433    48.731617    2.3577398    153644.81    156211.96 
    7600    1168.0995    6624720.3    6724.9433    48.731617    2.3577398    153739.33    156503.94 
    7700    1268.7474    6630165.3    6724.9433    48.731617    2.3577398     153834.8    156837.63 
    7800    1279.1595    6629194.1    6724.9433    48.731617    2.3577398    153807.73     156835.2 
    7900    1140.5228      6627786    6724.9433    48.731617    2.3577398    153826.87    156526.22 
    8000     1190.533    6614559.4    6724.9433    48.731617    2.3577398    153484.68    156302.39 
    8100    1139.6099    6617815.1    6724.9433    48.731617    2.3577398    153583.58    156280.76 
    8200    1189.7898    6622958.1    6724.9433    48.731617    2.3577398    153687.98    156503.93 
    8300    1258.5464    6629055.7    6724.9433    48.731617    2.3577398    153810.95    156789.64 
    8400    1260.1274    6628773.1    6724.9433    48.731617    2.3577398    153804.68     156787.1 
    8500    1208.5258    6619033.1    6724.9433    48.731617    2.3577398    153586.03    156446.32 
    8600    1112.8706    6610991.7    6724.9433    48.731617    2.3577398    153427.93    156061.83 
    8700    1093.6634    6610142.1    6724.9433    48.731617    2.3577398    153417.65    156006.09 
    8800    1269.1866    6605810.9    6724.9433    48.731617    2.3577398    153243.46    156247.32 
    8900    1315.5232    6605676.7    6724.9433    48.731617    2.3577398    153222.57     156336.1 
    9000    1202.4851    6605771.9    6724.9433    48.731617    2.3577398    153269.01    156115.01 
    9100    1139.1212    6595246.3    6724.9433    48.731617    2.3577398    153037.13    155733.16 
    9200    1163.3727    6585014.7    6724.9433    48.731617    2.3577398    152779.15    155532.58 
    9300    1113.9454    6592890.1    6724.9433    48.731617    2.3577398    152989.65    155626.09 
    9400    1217.2511    6599516.8    6724.9433    48.731617    2.3577398    153111.58    155992.52 
    9500    1222.0975    6611407.3    6724.9433    48.731617    2.3577398    153395.91    156288.33 
    9600    1290.4866    6602848.1    6724.9433    48.731617    2.3577398    153163.16    156217.43 
    9700    1158.6214    6597993.1    6724.9433    48.731617    2.3577398    153098.06    155840.24 
    9800    1103.8779    6591329.8    6724.9433    48.731617    2.3577398    152955.53    155568.14 
    9900    1149.3677    6588391.1    6724.9433    48.731617    2.3577398    152866.45    155586.74 
   10000    1171.1956    6597683.4    6724.9433    48.731617    2.3577398    153084.96    155856.91 
   10100    1273.6175    6602986.1    6724.9433    48.731617    2.3577398     153172.6    156186.95 
   10200    1287.7238      6603299    6724.9433    48.731617    2.3577398    153173.68    156221.41 
   10300    1244.6287    6596756.3    6724.9433    48.731617    2.3577398    153035.59    155981.33 
   10400    1164.6978    6592429.2    6724.9433    48.731617    2.3577398    152959.44       155716 
   10500    1159.3721    6588413.5    6724.9433    48.731617    2.3577398    152863.14     155607.1 
   10600    1167.7522    6593018.4    6724.9433    48.731617    2.3577398    152971.91    155735.71 
   10700    1133.5733    6606176.7    6724.9433    48.731617    2.3577398    153305.84    155988.74 
   10800    1283.2179    6601877.9    6724.9433    48.731617    2.3577398     153141.2    156178.27 
   10900     1231.201    6603664.4    6724.9433    48.731617    2.3577398    153206.23    156120.19 
   11000    1225.6232    6594304.4    6724.9433    48.731617    2.3577398    152980.14     155880.9 
   11100    1164.1808    6591440.8    6724.9433    48.731617    2.3577398    152935.04    155690.38 
   11200    1161.6483    6591397.4    6724.9433    48.731617    2.3577398    152936.03    155685.38 
   11300    1216.4297    6593909.9    6724.9433    48.731617    2.3577398    152974.88    155853.89 
   11400    1214.4134    6602258.1    6724.9433    48.731617    2.3577398    153177.84    156052.06 
   11500     1286.376    6599006.5    6724.9433    48.731617    2.3577398    153071.59    156116.14 
   11600    1192.7841    6602387.3    6724.9433    48.731617    2.3577398     153191.4    156014.44 
   11700    1179.4919    6596822.2    6724.9433    48.731617    2.3577398    153061.88    155853.46 
   11800    1168.8096    6592287.5    6724.9433    48.731617    2.3577398    152955.62    155721.92 
   11900    1158.9531    6593595.9    6724.9433    48.731617    2.3577398    152989.15    155732.12 
   12000    1220.5107    6594380.3    6724.9433    48.731617    2.3577398    152984.46    155873.12 
   12100    1192.2964    6603732.1    6724.9433    48.731617    2.3577398    153223.18    156045.06 
   12200    1217.0305    6604926.2    6724.9433    48.731617    2.3577398    153241.73    156122.16 
   12300    1200.5879      6601279    6724.9433    48.731617    2.3577398    153159.56    156001.07 
   12400    1204.4404    6593463.6    6724.9433    48.731617    2.3577398    152969.68     155820.3 
   12500    1182.4458    6591497.9    6724.9433    48.731617    2.3577398    152928.79    155727.36 
   12600    1164.1538    6594351.5    6724.9433    48.731617    2.3577398     153006.4    155761.67 
   12700     1204.593    6596470.3    6724.9433    48.731617    2.3577398    153041.77    155892.75 
   12800    1231.5354      6600614    6724.9433    48.731617    2.3577398    153131.73    156046.48 
   12900     1223.434    6604043.8    6724.9433    48.731617    2.3577398    153217.44    156113.01 
   13000    1209.7574      6599563    6724.9433    48.731617    2.3577398    153115.26    155978.47 
   13100    1188.7837    6593245.6    6724.9433    48.731617    2.3577398    152971.62    155785.19 
   13200    1161.0245      6593452    6724.9433    48.731617    2.3577398    152984.69    155732.57 
   13300    1175.7867    6594262.9    6724.9433    48.731617    2.3577398    152998.37    155781.18 
   13400    1184.9675      6599563    6724.9433    48.731617    2.3577398     153123.2    155927.74 
   13500    1215.0881    6602852.2    6724.9433    48.731617    2.3577398     153192.7    156068.53 
   13600    1247.3873    6600876.2    6724.9433    48.731617    2.3577398    153132.57    156084.84 
   13700     1235.273    6595722.6    6724.9433    48.731617    2.3577398    153011.04    155934.64 
   13800    1175.1059    6592743.3    6724.9433    48.731617    2.3577398    152963.43    155744.63 
   13900    1144.5109    6593701.2    6724.9433    48.731617    2.3577398    152998.75    155707.54 
   14000    1189.6135    6595980.4    6724.9433    48.731617    2.3577398    153037.18    155852.71 
   14100     1170.501    6604198.3    6724.9433    48.731617    2.3577398    153241.84    156012.14 
   14200    1226.3373    6602888.9    6724.9433    48.731617    2.3577398     153189.8    156092.25 
   14300     1166.723    6604485.7    6724.9433    48.731617    2.3577398    153250.63    156011.99 
   14400    1168.9293    6597383.8    6724.9433    48.731617    2.3577398    153079.45    155846.03 
   14500     1140.735    6594132.6    6724.9433    48.731617    2.3577398    153010.01    155709.86 
   14600    1163.0062    6593476.2    6724.9433    48.731617    2.3577398    152984.48    155737.04 
   14700    1177.2978    6600114.3    6724.9433    48.731617    2.3577398    153140.27    155926.65 
   14800    1242.2936    6601651.1    6724.9433    48.731617    2.3577398    153152.62    156092.84 
   14900    1268.1914    6598733.8    6724.9433    48.731617    2.3577398    153070.84    156072.35 
   15000    1197.0875    6597900.8    6724.9433    48.731617    2.3577398    153079.49    155912.71 
   15100     1154.295    6594698.8    6724.9433    48.731617    2.3577398    153018.57    155750.51 
   15200    1184.3385      6590882    6724.9433    48.731617    2.3577398    152915.43    155718.48 
   15300    1190.7766    6595567.4    6724.9433    48.731617    2.3577398    153025.29    155843.58 
   15400    1223.1901    6600918.5    6724.9433    48.731617    2.3577398    153142.68    156037.68 
   15500    1244.8164    6601364.5    6724.9433    48.731617    2.3577398    153146.37    156092.55 
   15600    1145.5366    6604577.8    6724.9433    48.731617    2.3577398    153262.47    155973.69 
   15700    1161.6279    6596767.5    6724.9433    48.731617    2.3577398    153065.46    155814.76 
   15800    1200.2162    6590352.2    6724.9433    48.731617    2.3577398     152894.9    155735.53 
   15900    1159.6873    6595802.6    6724.9433    48.731617    2.3577398    153043.74    155788.45 
   16000    1201.8431    6598667.2    6724.9433    48.731617    2.3577398    153098.59    155943.06 
   16100    1279.4472    6598362.8    6724.9433    48.731617    2.3577398    153059.42    156087.56 
   16200    1231.0336    6600022.5    6724.9433    48.731617    2.3577398    153116.94     156030.5 
   16300    1184.2292    6597880.2    6724.9433    48.731617    2.3577398    153083.59    155886.38 
   16400    1154.7438    6595352.4    6724.9433    48.731617    2.3577398    153034.58    155767.58 
   16500     1157.556    6594934.4    6724.9433    48.731617    2.3577398    153023.81    155763.47 
   16600    1229.2561    6594143.3    6724.9433    48.731617    2.3577398    152975.72    155885.08 
   16700    1227.0461      6600746    6724.9433    48.731617    2.3577398    153135.11    156039.23 
   16800    1282.2832    6597212.7    6724.9433    48.731617    2.3577398    153029.52    156064.38 
   16900    1165.9097      6600537    6724.9433    48.731617    2.3577398    153156.38    155915.81 
   17000    1201.8082    6592619.4    6724.9433    48.731617    2.3577398    152949.41    155793.81 
   17100    1162.5454    6594405.5    6724.9433    48.731617    2.3577398    153007.13     155758.6 
   17200    1228.9597    6592898.9    6724.9433    48.731617    2.3577398    152945.48    155854.14 
   17300    1238.4885    6597690.6    6724.9433    48.731617    2.3577398    153058.74    155989.95 
   17400    1233.3967    6601369.3    6724.9433    48.731617    2.3577398    153150.13    156069.29 
   17500    1203.1057    6600281.1    6724.9433    48.731617    2.3577398    153134.88    155982.35 
   17600    1190.0454    6594199.5    6724.9433    48.731617    2.3577398    152991.53    155808.08 
   17700    1183.7629    6591348.4    6724.9433    48.731617    2.3577398     152925.4    155727.09 
   17800     1212.486      6592689    6724.9433    48.731617    2.3577398    152947.03    155816.69 
   17900    1204.1162    6599891.6    6724.9433    48.731617    2.3577398    153124.87    155974.73 
   18000     1226.263    6601481.9    6724.9433    48.731617    2.3577398    153155.03     156057.3 
   18100    1267.8061    6596551.6    6724.9433    48.731617    2.3577398    153018.26    156018.85 
   18200    1210.4176    6594698.8    6724.9433    48.731617    2.3577398       152997    155861.77 
   18300    1179.9908    6592152.3    6724.9433    48.731617    2.3577398    152945.55     155738.3 
   18400    1145.7258    6596330.4    6724.9433    48.731617    2.3577398    153062.47    155774.14 
   18500    1200.1203    6598205.8    6724.9433    48.731617    2.3577398    153083.69    155924.09 
   18600    1247.3518    6599963.3    6724.9433    48.731617    2.3577398    153110.43    156062.61 
   18700    1275.1339    6597681.4    6724.9433    48.731617    2.3577398    153043.75    156061.69 
   18800    1219.3529    6597338.5    6724.9433    48.731617    2.3577398    153057.22    155943.14 
   18900     1155.562    6595656.3    6724.9433    48.731617    2.3577398    153041.01    155775.96 
   19000    1178.9085    6591162.7    6724.9433    48.731617    2.3577398     152923.1     155713.3 
   19100     1172.883    6595922.4    6724.9433    48.731617    2.3577398    153041.47    155817.41 
   19200    1214.4562    6600398.5    6724.9433    48.731617    2.3577398     153134.2    156008.53 
   19300    1229.5197    6603138.6    6724.9433    48.731617    2.3577398    153193.98    156103.97 
   19400     1210.354      6600323    6724.9433    48.731617    2.3577398     153132.1    155996.72 
   19500    1223.9077    6591151.6    6724.9433    48.731617    2.3577398    152905.59    155802.29 
   19600    1194.2068    6589465.3    6724.9433    48.731617    2.3577398    152874.92    155701.33 
   19700    1181.2157    6593534.1    6724.9433    48.731617    2.3577398    152979.29    155774.94 
   19800    1206.6728    6598956.6    6724.9433    48.731617    2.3577398    153101.45    155957.36 
   19900    1228.4727    6603529.7    6724.9433    48.731617    2.3577398     153204.3     156111.8 
   20000    1242.7143    6600486.1    6724.9433    48.731617    2.3577398    153124.84    156066.05 
   20100    1195.2524    6595861.7    6724.9433    48.731617    2.3577398    153029.97    155858.85 
   20200    1159.0836    6591344.2    6724.9433    48.731617    2.3577398    152934.18    155677.46 
   20300    1161.0318    6592750.6    6724.9433    48.731617    2.3577398    152968.99    155716.88 
   20400    1209.2265    6596592.3    6724.9433    48.731617    2.3577398    153044.09    155906.05 
   20500    1245.0887    6601190.5    6724.9433    48.731617    2.3577398    153138.59    156085.42 
   20600    1234.2946    6603115.6    6724.9433    48.731617    2.3577398    153191.85    156113.13 
   20700      1218.75    6597110.9    6724.9433    48.731617    2.3577398    153052.08    155936.57 
   20800    1153.3762    6594061.2    6724.9433    48.731617    2.3577398    153003.44    155733.21 
   20900    1138.0822    6593522.8    6724.9433    48.731617    2.3577398    152995.81    155689.38 
   21000    1210.3437    6593663.7    6724.9433    48.731617    2.3577398    152971.84    155836.43 
   21100     1203.929    6602492.5    6724.9433    48.731617    2.3577398    153187.91    156037.33 
   21200    1254.1566    6601165.6    6724.9433    48.731617    2.3577398    153135.89    156104.19 
   21300     1262.388    6596417.8    6724.9433    48.731617    2.3577398    153018.39    156006.17 
   21400    1210.3508    6592136.4    6724.9433    48.731617    2.3577398    152934.19    155798.81 
   21500    1158.6178    6591265.3    6724.9433    48.731617    2.3577398    152934.14    155676.32 
   21600    1191.1949    6592272.6    6724.9433    48.731617    2.3577398       152945    155764.28 
   21700    1221.0865    6598734.8    6724.9433    48.731617    2.3577398    153090.52    155980.54 
   21800     1267.893    6599772.1    6724.9433    48.731617    2.3577398    153096.94    156097.74 
   21900    1241.0895    6598781.8    6724.9433    48.731617    2.3577398    153084.85    156022.21 
   22000    1164.7171    6598904.9    6724.9433    48.731617    2.3577398     153116.9    155873.51 
   22100    1155.4781    6593659.9    6724.9433    48.731617    2.3577398    152993.61    155728.36 
   22200    1165.0156      6593540    6724.9433    48.731617    2.3577398    152985.02    155742.33 
   22300    1192.2569    6598026.7    6724.9433    48.731617    2.3577398    153084.42    155906.21 
   22400    1258.1236    6599469.8    6724.9433    48.731617    2.3577398    153094.89    156072.57 
   22500    1227.2121    6601105.7    6724.9433    48.731617    2.3577398    153146.06    156050.58 
   22600    1182.4099    6598091.3    6724.9433    48.731617    2.3577398    153089.27    155887.75 
   22700    1208.4588    6590958.4    6724.9433    48.731617    2.3577398     152907.9    155768.04 
   22800    1146.5563    6595510.7    6724.9433    48.731617    2.3577398    153041.49    155755.12 
   22900    1200.0854    6595708.8    6724.9433    48.731617    2.3577398    153025.01    155865.33 
   23000    1267.1391    6595836.2    6724.9433    48.731617    2.3577398    153001.47    156000.49 
   23100    1203.2981    6603469.9    6724.9433    48.731617    2.3577398       153212    156059.92 
   23200    1203.3511    6598860.3    6724.9433    48.731617    2.3577398    153101.09    155949.14 
   23300    1186.0509    6594972.1    6724.9433    48.731617    2.3577398    153012.82    155819.92 
   23400    1213.5746    6591045.2    6724.9433    48.731617    2.3577398    152907.28    155779.52 
   23500    1217.4736    6593126.7    6724.9433    48.731617    2.3577398    152953.49    155834.97 
   23600    1238.1783    6595382.4    6724.9433    48.731617    2.3577398    153002.31    155932.79 
   23700    1210.4223    6600802.7    6724.9433    48.731617    2.3577398    153144.62    156009.41 
   23800    1192.1235    6600717.9    6724.9433    48.731617    2.3577398    153148.29    155969.76 
   23900    1241.2348    6592200.2    6724.9433    48.731617    2.3577398     152924.7    155862.41 
   24000    1212.3572    6592015.6    6724.9433    48.731617    2.3577398    152931.58    155800.94 
   24100    1195.1559    6594600.9    6724.9433    48.731617    2.3577398    153001.27    155829.92 
   24200    1222.4812    6596712.1    6724.9433    48.731617    2.3577398    153040.88     155934.2 
   24300     1233.666    6597976.1    6724.9433    48.731617    2.3577398     153067.1     155986.9 
   24400    1201.4812    6599458.3    6724.9433    48.731617    2.3577398     153114.6    155958.22 
   24500    1203.0634    6596378.5    6724.9433    48.731617    2.3577398    153040.77    155888.14 
   24600    1230.1119    6591969.8    6724.9433    48.731617    2.3577398    152924.25    155835.64 
   24700    1243.0287      6592249    6724.9433    48.731617    2.3577398    152924.14    155866.09 
   24800    1217.6776    6596531.8    6724.9433    48.731617    2.3577398    153037.81    155919.76 
   24900    1223.9759    6596800.9    6724.9433    48.731617    2.3577398    153041.75    155938.61 
   25000    1218.0749    6597145.3    6724.9433    48.731617    2.3577398    153054.21     155937.1 
   25100     1164.373    6599385.9    6724.9433    48.731617    2.3577398    153127.83    155883.62 
   25200    1150.2812    6600403.8    6724.9433    48.731617    2.3577398     153157.8    155880.24 
   25300      1177.18    6598397.5    6724.9433    48.731617    2.3577398    153099.22    155885.33 
   25400    1232.4661    6594743.3    6724.9433    48.731617    2.3577398    152989.01    155905.96 
   25500    1219.0309    6596732.2    6724.9433    48.731617    2.3577398    153042.18    155927.34 
   25600    1250.9844    6592139.5    6724.9433    48.731617    2.3577398    152918.87    155879.66 
   25700    1175.5712    6597476.9    6724.9433    48.731617    2.3577398     153078.7       155861 
   25800    1199.2629    6597445.1    6724.9433    48.731617    2.3577398    153066.51    155904.89 
   25900    1156.1464    6602047.9    6724.9433    48.731617    2.3577398    153197.17     155933.5 
   26000    1178.9523    6600338.7    6724.9433    48.731617    2.3577398    153145.82    155936.12 
   26100    1217.6748    6595517.3    6724.9433    48.731617    2.3577398    153012.55    155894.49 
   26200    1240.6897    6592137.8    6724.9433    48.731617    2.3577398    152923.03    155859.45 
   26300    1144.1222    6599508.5    6724.9433    48.731617    2.3577398    153139.36    155847.23 
   26400    1128.8807    6602534.6    6724.9433    48.731617    2.3577398    153217.45    155889.25 
   26500    1207.4524    6599719.1    6724.9433    48.731617    2.3577398     153119.9    155977.65 
   26600    1205.9781    6599760.4    6724.9433    48.731617    2.3577398    153120.51    155974.77 
   26700    1167.7499      6599392    6724.9433    48.731617    2.3577398    153127.66    155891.45 
   26800    1189.5046      6594182    6724.9433    48.731617    2.3577398    152992.73       155808 
   26900     1199.046      6593740    6724.9433    48.731617    2.3577398     152978.3    155816.15 
   27000    1211.3834    6596031.6    6724.9433    48.731617    2.3577398    153028.72    155895.78 
   27100    1232.1993    6597526.6    6724.9433    48.731617    2.3577398    153056.35    155972.67 
   27200    1253.9719      6597251    6724.9433    48.731617    2.3577398    153040.19    156008.04 
   27300    1198.9088    6598782.2    6724.9433    48.731617    2.3577398    153100.16    155937.69 
   27400    1181.3625    6594298.4    6724.9433    48.731617    2.3577398    152998.36    155794.36 
   27500    1160.5756    6594478.3    6724.9433    48.731617    2.3577398    153010.73    155757.54 
   27600    1182.3351    6596951.6    6724.9433    48.731617    2.3577398    153062.23    155860.54 
   27700    1189.6285    6601874.7    6724.9433    48.731617    2.3577398    153178.37    155993.93 
   27800    1230.3856    6600209.1    6724.9433    48.731617    2.3577398    153122.66    156034.69 
   27900    1266.8539    6594262.5    6724.9433    48.731617    2.3577398    152964.81    155963.16 
   28000    1152.9894    6597731.2    6724.9433    48.731617    2.3577398    153093.25     155822.1 
   28100    1169.2412    6593064.2    6724.9433    48.731617    2.3577398    152972.94    155740.25 
   28200    1154.0822    6597036.3    6724.9433    48.731617    2.3577398    153075.98    155807.42 
   28300     1258.976    6595318.3    6724.9433    48.731617    2.3577398    152990.92    155970.62 
   28400    1215.4908    6602522.5    6724.9433    48.731617    2.3577398    153184.42     156061.2 
   28500    1186.2035    6602202.3    6724.9433    48.731617    2.3577398    153187.88    155995.34 
   28600    1187.8197    6596025.5    6724.9433    48.731617    2.3577398    153037.97    155849.26 
   28700    1150.1023      6594626    6724.9433    48.731617    2.3577398    153017.95    155739.97 
   28800    1164.6352    6594527.5    6724.9433    48.731617    2.3577398    153011.67    155768.09 
   28900    1186.2298    6599079.1    6724.9433    48.731617    2.3577398    153110.45    155917.97 
   29000    1216.9764      6601945    6724.9433    48.731617    2.3577398    153169.86    156050.16 
   29100    1246.5363    6598889.2    6724.9433    48.731617    2.3577398    153083.46    156033.72 
   29200      1205.93    6595975.2    6724.9433    48.731617    2.3577398    153029.47    155883.62 
   29300    1163.0157    6593825.7    6724.9433    48.731617    2.3577398    152994.65    155747.23 
   29400    1157.6176    6595028.2    6724.9433    48.731617    2.3577398    153022.78    155762.59 
   29500    1194.5225    6597090.6    6724.9433    48.731617    2.3577398    153060.57    155887.72 
   29600    1245.2954    6599334.7    6724.9433    48.731617    2.3577398    153094.36    156041.68 
   29700    1241.3983    6600239.6    6724.9433    48.731617    2.3577398    153119.62    156057.72 
   29800    1214.6721      6596955    6724.9433    48.731617    2.3577398    153048.78    155923.62 
   29900    1175.8846    6593514.3    6724.9433    48.731617    2.3577398    152980.03    155763.07 
   30000    1158.8244    6593651.7    6724.9433    48.731617    2.3577398    152990.72    155733.39 
   30100     1212.492    6594601.5    6724.9433    48.731617    2.3577398    152994.16    155863.84 
   30200     1230.588    6599907.8    6724.9433    48.731617    2.3577398    153113.97    156026.48 
   30300    1227.1189      6601435    6724.9433    48.731617    2.3577398    153153.74    156058.04 
   30400    1226.1158    6596911.1    6724.9433    48.731617    2.3577398    153043.78    155945.71 
   30500    1202.5357    6592339.1    6724.9433    48.731617    2.3577398    152941.61    155787.72 
   30600    1158.9779    6592808.2    6724.9433    48.731617    2.3577398    152970.26    155713.28 
   30700    1161.0891    6597626.6    6724.9433    48.731617    2.3577398    153087.18     155835.2 
   30800    1244.5607    6598943.8    6724.9433    48.731617    2.3577398    153084.89    156030.47 
   30900    1263.1418    6600355.8    6724.9433    48.731617    2.3577398    153113.03    156102.59 
   31000     1225.279    6598228.1    6724.9433    48.731617    2.3577398    153076.11    155976.06 
   31100    1225.4824    6590682.8    6724.9433    48.731617    2.3577398    152894.46    155794.89 
   31200    1107.3637    6596571.4    6724.9433    48.731617    2.3577398    153083.35    155704.22 
   31300    1149.4618    6596615.8    6724.9433    48.731617    2.3577398    153066.17    155786.67 
   31400    1247.8935      6596947    6724.9433    48.731617    2.3577398    153035.59    155989.06 
   31500    1234.3829    6603247.4    6724.9433    48.731617    2.3577398    153194.14    156115.63 
   31600    1202.4123    6601930.4    6724.9433    48.731617    2.3577398    153175.34    156021.17 
   31700    1158.4901    6596770.5    6724.9433    48.731617    2.3577398    153067.63     155809.5 
   31800    1162.6982    6591363.4    6724.9433    48.731617    2.3577398    152934.09    155685.92 
   31900     1198.627    6590455.4    6724.9433    48.731617    2.3577398     152898.6    155735.47 
   32000    1190.7852      6599761    6724.9433    48.731617    2.3577398    153126.49    155944.79 
   32100    1269.4439    6601478.3    6724.9433    48.731617    2.3577398    153137.63    156142.11 
   32200    1224.0581    6603597.5    6724.9433    48.731617    2.3577398    153208.19    156105.24 
   32300    1196.7537    6596452.4    6724.9433    48.731617    2.3577398    153044.51    155876.94 
   32400    1145.4554    6592474.9    6724.9433    48.731617    2.3577398    152966.95    155677.97 
   32500    1160.0867    6591566.8    6724.9433    48.731617    2.3577398    152940.08    155685.73 
   32600    1166.8815    6598786.7    6724.9433    48.731617    2.3577398    153113.17     155874.9 
   32700    1285.9698    6597934.9    6724.9433    48.731617    2.3577398    153045.28    156088.86 
   32800    1241.3259    6603462.3    6724.9433    48.731617    2.3577398    153196.74    156134.66 
   32900    1243.3647    6596159.6    6724.9433    48.731617    2.3577398    153020.94    155963.69 
   33000     1190.975      6590743    6724.9433    48.731617    2.3577398    152908.32    155727.07 
   33100    1156.1275    6590579.5    6724.9433    48.731617    2.3577398    152918.29    155654.57 
   33200    1172.2276    6595562.4    6724.9433    48.731617    2.3577398    153031.41     155805.8 
   33300    1155.5527    6605890.2    6724.9433    48.731617    2.3577398     153289.6    156024.52 
   33400      1269.06    6601876.4    6724.9433    48.731617    2.3577398    153147.13    156150.69 
   33500    1257.5619    6598496.6    6724.9433    48.731617    2.3577398    153070.17    156046.52 
   33600    1209.4643    6592483.7    6724.9433    48.731617    2.3577398    152942.92    155805.44 
   33700    1119.3938    6593143.4    6724.9433    48.731617    2.3577398    152993.95    155643.29 
   33800    1226.5181    6587829.3    6724.9433    48.731617    2.3577398    152823.73    155726.61 
   33900    1199.8985    6599749.3    6724.9433    48.731617    2.3577398    153122.75    155962.63 
   34000    1258.0062    6602314.8    6724.9433    48.731617    2.3577398    153162.42    156139.83 
   34100    1258.1653    6599845.7    6724.9433    48.731617    2.3577398    153103.92     156081.7 
   34200    1181.8246      6597576    6724.9433    48.731617    2.3577398    153079.14    155876.24 
   34300     1121.536    6594920.8    6724.9433    48.731617    2.3577398    153036.49     155690.9 
   34400    1176.3184      6590495    6724.9433    48.731617    2.3577398    152908.98    155693.05 
   34500    1188.2619    6597101.7    6724.9433    48.731617    2.3577398    153063.48    155875.81 
   34600    1232.6961    6602636.9    6724.9433    48.731617    2.3577398    153181.38    156098.88 
   34700    1250.3661    6602443.1    6724.9433    48.731617    2.3577398    153169.28     156128.6 
   34800     1178.189      6600581    6724.9433    48.731617    2.3577398    153151.95    155940.44 
   34900    1202.4577    6589935.3    6724.9433    48.731617    2.3577398    152885.15    155731.08 
   35000    1160.5256    6590875.5    6724.9433    48.731617    2.3577398    152922.84    155669.53 
   35100    1187.1857    6594547.1    6724.9433    48.731617    2.3577398    153001.92     155811.7 
   35200    1245.8664    6599243.2    6724.9433    48.731617    2.3577398    153093.45    156042.12 
   35300    1274.2988    6601036.8    6724.9433    48.731617    2.3577398    153126.39    156142.36 
   35400    1238.9873    6598621.7    6724.9433    48.731617    2.3577398    153081.49    156013.88 
   35500    1172.1321    6594910.6    6724.9433    48.731617    2.3577398    153016.05    155790.21 
   35600    1166.1193      6590927    6724.9433    48.731617    2.3577398    152921.88    155681.81 
   35700    1148.4383    6595634.4    6724.9433    48.731617    2.3577398    153043.75    155761.83 
   35800    1201.8545    6599084.9    6724.9433    48.731617    2.3577398    153106.39    155950.89 
   35900    1195.8788      6606034    6724.9433    48.731617    2.3577398    153277.57    156107.94 
   36000    1231.5268    6601891.1    6724.9433    48.731617    2.3577398    153162.96    156077.69 
   36100    1222.2391    6594547.1    6724.9433    48.731617    2.3577398    152988.28    155881.03 
   36200     1149.954    6593369.1    6724.9433    48.731617    2.3577398    152988.97    155710.64 
   36300    1175.0452    6591733.1    6724.9433    48.731617    2.3577398    152937.13    155718.19 
   36400    1210.1556      6595031    6724.9433    48.731617    2.3577398    153004.11    155868.26 
   36500    1279.9168    6596453.4    6724.9433    48.731617    2.3577398    153011.26    156040.52 
   36600    1243.6831    6601151.5    6724.9433    48.731617    2.3577398    153140.39    156083.89 
   36700    1222.9674    6597853.2    6724.9433    48.731617    2.3577398    153068.95    155963.42 
   36800    1195.0834    6592765.9    6724.9433    48.731617    2.3577398    152955.29    155783.77 
   36900    1130.2237      6595056    6724.9433    48.731617    2.3577398    153037.42    155712.39 
   37000    1189.1379    6594450.2    6724.9433    48.731617    2.3577398    153000.86    155815.27 
   37100    1211.6139    6599989.4    6724.9433    48.731617    2.3577398    153123.85    155991.45 
   37200     1210.875    6603614.7    6724.9433    48.731617    2.3577398    153212.93    156078.78 
   37300    1254.8054    6597634.2    6724.9433    48.731617    2.3577398    153051.45    156021.27 
   37400    1204.8393      6594707    6724.9433    48.731617    2.3577398    152999.18    155850.75 
   37500    1134.1626      6595249    6724.9433    48.731617    2.3577398    153040.12    155724.42 
   37600    1166.3129    6593425.5    6724.9433    48.731617    2.3577398    152982.99    155743.37 
   37700    1146.2064    6601718.9    6724.9433    48.731617    2.3577398    153192.94    155905.74 
   37800    1210.8287      6602788    6724.9433    48.731617    2.3577398    153193.26    156059.01 
   37900     1244.028    6600136.3    6724.9433    48.731617    2.3577398    153115.84    156060.16 
   38000    1187.3155      6598482    6724.9433    48.731617    2.3577398     153098.1     155908.2 
   38100    1204.0244      6590658    6724.9433    48.731617    2.3577398    152900.15    155749.79 
   38200    1187.0933    6591644.2    6724.9433    48.731617    2.3577398    152932.35    155741.92 
   38300     1189.695    6596737.1    6724.9433    48.731617    2.3577398    153054.52    155870.25 
   38400    1243.6112    6599439.6    6724.9433    48.731617    2.3577398    153097.91    156041.24 
   38500    1220.1673    6602534.2    6724.9433    48.731617    2.3577398    153183.58    156071.42 
   38600    1255.1866    6594677.7    6724.9433    48.731617    2.3577398    152977.44    155948.17 
   38700     1159.841    6595392.7    6724.9433    48.731617    2.3577398    153033.32    155778.39 
   38800    1194.8342    6590374.3    6724.9433    48.731617    2.3577398    152898.66    155726.55 
   38900      1166.69    6596785.6    6724.9433    48.731617    2.3577398    153063.87    155825.14 
   39000    1188.8963    6602512.3    6724.9433    48.731617    2.3577398    153194.38    156008.22 
   39100    1198.3787    6604577.4    6724.9433    48.731617    2.3577398    153241.98    156078.26 
   39200    1266.7513    6595050.8    6724.9433    48.731617    2.3577398    152984.74    155982.84 
   39300    1171.3315    6595674.8    6724.9433    48.731617    2.3577398    153034.83     155807.1 
   39400    1149.9453    6594082.4    6724.9433    48.731617    2.3577398    153004.77    155726.42 
   39500    1199.5299    6593279.6    6724.9433    48.731617    2.3577398    152967.34    155806.34 
   39600    1234.3045      6597288    6724.9433    48.731617    2.3577398    153050.57    155971.88 
   39700    1216.8824    6603127.9    6724.9433    48.731617    2.3577398    153196.89    156076.96 
   39800    1216.5869    6600119.5    6724.9433    48.731617    2.3577398    153126.18    156005.56 
   39900    1211.2682    6593514.2    6724.9433    48.731617    2.3577398     152966.7    155833.48 
   40000    1178.1134    6591355.1    6724.9433    48.731617    2.3577398    152928.89     155717.2 
   40100    1195.4362    6592225.6    6724.9433    48.731617    2.3577398    152941.97    155771.29 
   40200    1171.4387    6601115.4    6724.9433    48.731617    2.3577398    153167.41    155939.92 
   40300    1258.4409    6599636.2    6724.9433    48.731617    2.3577398    153097.66    156076.09 
   40400    1199.6624    6603221.4    6724.9433    48.731617    2.3577398    153207.65    156046.97 
   40500    1247.0847    6592796.1    6724.9433    48.731617    2.3577398    152937.02    155888.57 
   40600     1146.333    6594806.2    6724.9433    48.731617    2.3577398    153023.65    155736.75 
   40700    1168.9333    6592434.1    6724.9433    48.731617    2.3577398    152957.74    155724.33 
   40800    1215.6642    6595093.5    6724.9433    48.731617    2.3577398    153003.63    155880.82 
   40900    1242.3138    6600221.6    6724.9433    48.731617    2.3577398    153118.78    156059.05 
   41000    1279.0996    6598776.6    6724.9433    48.731617    2.3577398    153067.97     156095.3 
   41100    1135.8365    6603428.6    6724.9433    48.731617    2.3577398    153236.84     155925.1 
   41200     1210.362      6590387    6724.9433    48.731617    2.3577398    152891.11    155755.75 
   41300    1154.5571    6592543.9    6724.9433    48.731617    2.3577398    152965.78    155698.34 
   41400    1182.7008    6595048.3    6724.9433    48.731617    2.3577398    153014.81    155813.98 
   41500    1165.1943      6604962    6724.9433    48.731617    2.3577398    153264.37    156022.11 
   41600    1236.4334    6603563.8    6724.9433    48.731617    2.3577398     153201.8    156128.14 
   41700    1210.1674    6601630.6    6724.9433    48.731617    2.3577398    153165.06    156029.24 
   41800    1130.6457    6598477.7    6724.9433    48.731617    2.3577398     153119.5    155795.47 
   41900    1118.6083    6593534.6    6724.9433    48.731617    2.3577398    153005.62     155653.1 
   42000    1154.6967    6594212.7    6724.9433    48.731617    2.3577398    153005.75    155738.65 
   42100     1208.699    6599185.5    6724.9433    48.731617    2.3577398    153105.81    155966.52 
   42200     1212.011    6606332.4    6724.9433    48.731617    2.3577398    153278.81    156147.35 
   42300    1238.7352    6602026.4    6724.9433    48.731617    2.3577398    153163.73    156095.53 
   42400    1154.7604    6598973.7    6724.9433    48.731617    2.3577398    153120.83    155853.87 
   42500    1140.0862    6592275.2    6724.9433    48.731617    2.3577398    152964.71    155663.02 
   42600    1113.0083    6595060.8    6724.9433    48.731617    2.3577398    153044.26    155678.49 
   42700    1192.9679    6597478.7    6724.9433    48.731617    2.3577398    153071.48    155894.95 
   42800    1230.7634    6603956.6    6724.9433    48.731617    2.3577398    153213.39    156126.31 
   42900    1254.8036    6603099.2    6724.9433    48.731617    2.3577398    153184.09    156153.91 
   43000     1237.348    6595741.7    6724.9433    48.731617    2.3577398    153011.94    155940.45 
   43100    1125.7624    6594560.3    6724.9433    48.731617    2.3577398     153025.3    155689.71 
   43200      1175.37    6588113.1    6724.9433    48.731617    2.3577398    152850.41    155632.23 
   43300    1201.5592    6593180.4    6724.9433    48.731617    2.3577398    152961.49     155805.3 
   43400      1238.58    6600820.6    6724.9433    48.731617    2.3577398    153134.94    156066.37 
   43500    1308.8452      6599695    6724.9433    48.731617    2.3577398    153079.28    156177.01 
   43600    1208.5963    6602301.9    6724.9433    48.731617    2.3577398    153181.96    156042.43 
   43700    1183.3157    6593843.1    6724.9433    48.731617    2.3577398    152987.07     155787.7 
   43800    1143.0365    6590607.8    6724.9433    48.731617    2.3577398    152925.08    155630.38 
   43900    1154.8496    6592946.2    6724.9433    48.731617    2.3577398    152976.86    155710.12 
   44000    1213.2805    6598915.9    6724.9433    48.731617    2.3577398    153097.77    155969.31 
   44100    1268.9961    6602605.5    6724.9433    48.731617    2.3577398    153164.62    156168.03 
   44200    1244.3903    6602134.6    6724.9433    48.731617    2.3577398    153163.51    156108.69 
   44300    1178.5913    6597424.7    6724.9433    48.731617    2.3577398    153075.34    155864.79 
   44400    1135.7525    6592588.4    6724.9433    48.731617    2.3577398    152974.03    155662.08 
   44500    1175.8086    6589331.3    6724.9433    48.731617    2.3577398       152880    155662.86 
   44600    1198.2824    6595839.3    6724.9433    48.731617    2.3577398    153029.09    155865.14 
   44700    1203.5305    6605301.9    6724.9433    48.731617    2.3577398    153256.85    156105.32 
   44800    1227.0653    6605413.7    6724.9433    48.731617    2.3577398    153249.83       156154 
   44900    1107.8508    6606515.5    6724.9433    48.731617    2.3577398    153323.95    155945.97 
   45000    1172.6064    6592139.6    6724.9433    48.731617    2.3577398    152948.33    155723.61 
   45100    1154.4673    6591189.1    6724.9433    48.731617    2.3577398    152933.37    155665.72 
   45200    1193.2023    6593648.3    6724.9433    48.731617    2.3577398    152977.13    155801.16 
   45300    1183.5697    6603855.9    6724.9433    48.731617    2.3577398    153230.86    156032.09 
   45400    1244.5212    6603723.1    6724.9433    48.731617    2.3577398    153201.82     156147.3 
   45500    1251.0598    6598502.8    6724.9433    48.731617    2.3577398    153073.22    156034.18 
   45600    1150.7843    6596238.9    6724.9433    48.731617    2.3577398    153056.78    155780.42 
   45700    1142.1086    6591703.6    6724.9433    48.731617    2.3577398    152950.73    155653.83 
   45800     1192.143    6591515.4    6724.9433    48.731617    2.3577398    152927.45    155748.97 
   45900    1223.8082    6598239.3    6724.9433    48.731617    2.3577398    153075.88    155972.34 
   46000    1227.5074    6604284.5    6724.9433    48.731617    2.3577398    153223.01    156128.23 
   46100    1255.5485    6600061.7    6724.9433    48.731617    2.3577398    153108.42    156080.01 
   46200    1234.8395      6593122    6724.9433    48.731617    2.3577398    152949.24    155871.81 
   46300    1228.7067    6586028.6    6724.9433    48.731617    2.3577398    152778.71    155686.77 
   46400    1147.9551      6592992    6724.9433    48.731617    2.3577398    152979.96     155696.9 
   46500    1173.7625      6598465    6724.9433    48.731617    2.3577398    153101.54    155879.56 
   46600    1255.4274      6600495    6724.9433    48.731617    2.3577398    153119.58    156090.88 
   46700     1261.672    6601083.8    6724.9433    48.731617    2.3577398    153132.12    156118.19 
   46800    1239.7655    6596056.2    6724.9433    48.731617    2.3577398     153017.8    155952.03 
   46900    1194.6575    6590734.9    6724.9433    48.731617    2.3577398    152906.23     155733.7 
   47000    1180.7761    6589031.6    6724.9433    48.731617    2.3577398    152871.43    155666.05 
   47100    1192.7459      6594172    6724.9433    48.731617    2.3577398    152990.99    155813.93 
   47200    1230.8546    6600357.2    6724.9433    48.731617    2.3577398    153125.86       156039 
   47300    1263.1165    6602008.6    6724.9433    48.731617    2.3577398    153153.23    156142.73 
   47400    1221.6096      6600235    6724.9433    48.731617    2.3577398    153125.83    156017.09 
   47500    1176.0723    6594470.2    6724.9433    48.731617    2.3577398    153003.53    155787.01 
   47600    1118.6243    6593776.4    6724.9433    48.731617    2.3577398     153009.9    155657.42 
   47700    1165.4975      6593601    6724.9433    48.731617    2.3577398    152986.62    155745.08 
   47800    1235.7126      6597352    6724.9433    48.731617    2.3577398    153049.64    155974.27 
   47900    1236.6136    6604146.1    6724.9433    48.731617    2.3577398    153215.83     156142.6 
   48000    1214.9051      6602931    6724.9433    48.731617    2.3577398    153194.95    156070.34 
   48100    1177.3967    6596664.6    6724.9433    48.731617    2.3577398     153057.7    155844.32 
   48200    1158.5527    6591386.7    6724.9433    48.731617    2.3577398    152935.81    155677.83 
   48300    1192.1311    6590139.6    6724.9433    48.731617    2.3577398    152893.73    155715.22 
   48400    1232.6993    6595659.1    6724.9433    48.731617    2.3577398    153011.76    155929.27 
   48500     1256.329    6601474.9    6724.9433    48.731617    2.3577398    153143.42    156116.85 
   48600    1243.8414    6602098.1    6724.9433    48.731617    2.3577398    153162.72     156106.6 
   48700    1203.8378    6596308.8    6724.9433    48.731617    2.3577398     153039.4     155888.6 
   48800    1138.4085    6593973.9    6724.9433    48.731617    2.3577398    153007.28    155701.62 
   48900    1141.8033    6593199.6    6724.9433    48.731617    2.3577398    152987.42     155689.8 
   49000    1214.8626    6594493.9    6724.9433    48.731617    2.3577398    152989.74    155865.03 
   49100    1239.4693    6601339.2    6724.9433    48.731617    2.3577398     153146.9    156080.43 
   49200    1245.2435    6602586.6    6724.9433    48.731617    2.3577398    153175.33    156122.53 
   49300    1198.0212    6599686.2    6724.9433    48.731617    2.3577398    153122.17     155957.6 
   49400    1123.8743    6596193.6    6724.9433    48.731617    2.3577398    153067.15     155727.1 
   49500    1149.4265    6592169.7    6724.9433    48.731617    2.3577398    152959.37    155679.79 
   49600    1180.1804    6595557.5    6724.9433    48.731617    2.3577398    153029.85    155823.05 
   49700    1208.4357    6601911.7    6724.9433    48.731617    2.3577398    153172.25    156032.33 
   49800    1195.7679    6606658.5    6724.9433    48.731617    2.3577398    153292.16    156122.26 
   49900    1217.4172    6599785.7    6724.9433    48.731617    2.3577398    153117.26     155998.6 
   50000    1180.9966    6593576.3    6724.9433    48.731617    2.3577398    152982.38    155777.52 
   50100    1169.4804    6589939.4    6724.9433    48.731617    2.3577398     152895.7    155663.58 
   50200    1183.7701    6593015.3    6724.9433    48.731617    2.3577398    152965.76    155767.46 
   50300     1242.436    6597583.3    6724.9433    48.731617    2.3577398    153053.51    155994.06 
   50400    1268.9726    6600454.3    6724.9433    48.731617    2.3577398     153113.3    156116.66 
   50500    1233.3112    6599339.1    6724.9433    48.731617    2.3577398    153100.24     156019.2 
   50600     1155.575    6598081.4    6724.9433    48.731617    2.3577398    153100.74    155835.71 
   50700     1193.113    6590629.7    6724.9433    48.731617    2.3577398    152905.71    155729.52 
   50800    1175.9632    6593807.7    6724.9433    48.731617    2.3577398    152987.59    155770.82 
   50900    1232.2108    6595583.6    6724.9433    48.731617    2.3577398     153008.5    155924.85 
   51000    1257.8975    6599096.2    6724.9433    48.731617    2.3577398    153085.48    156062.62 
   51100      1184.55    6603113.2    6724.9433    48.731617    2.3577398    153208.81    156012.36 
   51200    1196.0941    6596414.3    6724.9433    48.731617    2.3577398     153044.7    155875.57 
   51300    1228.6238    6589556.7    6724.9433    48.731617    2.3577398    152865.64     155773.5 
   51400    1188.7346    6592891.3    6724.9433    48.731617    2.3577398    152961.51    155774.96 
   51500    1202.8912    6596182.1    6724.9433    48.731617    2.3577398    153036.16    155883.12 
   51600    1207.0416    6600819.1    6724.9433    48.731617    2.3577398    153146.81     156003.6 
   51700    1190.7975    6603733.7    6724.9433    48.731617    2.3577398    153223.02    156041.35 
   51800    1202.8515    6598657.6    6724.9433    48.731617    2.3577398    153095.85    155942.71 
   51900    1150.2959    6597556.3    6724.9433    48.731617    2.3577398    153090.67    155813.14 
   52000    1189.7597    6592556.6    6724.9433    48.731617    2.3577398    152952.48    155768.36 
   52100     1193.799    6594774.3    6724.9433    48.731617    2.3577398    153004.91    155830.35 
   52200    1232.6494    6596546.8    6724.9433    48.731617    2.3577398    153033.54    155950.93 
   52300    1187.9062    6602990.8    6724.9433    48.731617    2.3577398    153205.84    156017.33 
   52400    1200.6544      6600464    6724.9433    48.731617    2.3577398    153139.57    155981.23 
   52500    1170.7975    6598317.5    6724.9433    48.731617    2.3577398    153100.25    155871.25 
   52600    1163.5165    6594975.5    6724.9433    48.731617    2.3577398    153020.68    155774.45 
   52700    1166.7067    6596065.4    6724.9433    48.731617    2.3577398    153046.79     155808.1 
   52800    1218.6121    6596466.5    6724.9433    48.731617    2.3577398    153035.63     155919.8 
   52900    1210.2874    6600333.5    6724.9433    48.731617    2.3577398    153133.58    155998.04 
   53000    1218.5366    6599773.7    6724.9433    48.731617    2.3577398    153116.94    156000.93 
   53100    1134.4178    6602862.7    6724.9433    48.731617    2.3577398    153225.37    155910.27 
   53200    1193.5192    6594553.8    6724.9433    48.731617    2.3577398    152999.33    155824.11 
   53300    1115.6949    6600004.3    6724.9433    48.731617    2.3577398    153160.23    155800.82 
   53400    1160.2694    6598835.1    6724.9433    48.731617    2.3577398    153116.63    155862.71 
   53500    1257.8257    6594391.9    6724.9433    48.731617    2.3577398    152970.31    155947.28 
   53600     1208.273    6600094.1    6724.9433    48.731617    2.3577398    153128.84    155988.53 
   53700    1220.3821      6597594    6724.9433    48.731617    2.3577398    153064.19    155952.55 
   53800    1189.8866    6596942.8    6724.9433    48.731617    2.3577398    153060.05    155876.23 
   53900    1189.6593    6594726.5    6724.9433    48.731617    2.3577398    153005.28    155820.92 
   54000    1163.1777    6597603.4    6724.9433    48.731617    2.3577398    153085.64    155838.61 
   54100    1129.9788    6603799.2    6724.9433    48.731617    2.3577398    153248.36    155922.75 
   54200    1174.2979    6602985.9    6724.9433    48.731617    2.3577398    153211.71    155990.99 
   54300    1202.2676    6598827.8    6724.9433    48.731617    2.3577398    153100.66    155946.14 
   54400    1201.6199    6596660.9    6724.9433    48.731617    2.3577398    153047.49    155891.44 
   54500    1156.4963    6598440.4    6724.9433    48.731617    2.3577398    153109.06    155846.21 
   54600    1124.4267    6600714.1    6724.9433    48.731617    2.3577398    153175.47    155836.72 
   54700    1208.5752    6596805.3    6724.9433    48.731617    2.3577398    153047.83    155908.24 
   54800    1202.3055    6600070.3    6724.9433    48.731617    2.3577398    153129.88    155975.45 
   54900    1275.9242    6594373.4    6724.9433    48.731617    2.3577398    152962.23    155982.04 
   55000    1226.7103    6594634.7    6724.9433    48.731617    2.3577398    152989.97     155893.3 
   55100    1190.4617    6595221.7    6724.9433    48.731617    2.3577398    153018.11    155835.65 
   55200    1202.1574    6594334.5    6724.9433    48.731617    2.3577398    152990.72    155835.94 
   55300    1243.0369    6593465.6    6724.9433    48.731617    2.3577398    152954.14    155896.11 
   55400    1211.6455      6598770    6724.9433    48.731617    2.3577398     153094.4    155962.08 
   55500    1221.3906    6598591.5    6724.9433    48.731617    2.3577398    153087.44    155978.18 
   55600    1194.4025    6598312.9    6724.9433    48.731617    2.3577398    153090.92    155917.79 
   55700    1147.1092      6598385    6724.9433    48.731617    2.3577398    153109.72    155824.65 
   55800    1139.9498    6598429.3    6724.9433    48.731617    2.3577398    153116.02    155814.01 
   55900    1223.6601    6595257.2    6724.9433    48.731617    2.3577398    153004.38    155900.49 
   56000    1204.6079    6600285.3    6724.9433    48.731617    2.3577398    153134.83    155985.85 
   56100    1223.9387    6598697.3    6724.9433    48.731617    2.3577398    153088.78    155985.55 
   56200    1216.3001    6596442.5    6724.9433    48.731617    2.3577398    153036.77    155915.46 
   56300    1213.3187      6593170    6724.9433    48.731617    2.3577398    152958.75    155830.39 
   56400    1192.4591    6593658.6    6724.9433    48.731617    2.3577398    152978.07    155800.34 
   56500    1148.0015    6599864.2    6724.9433    48.731617    2.3577398    153146.57    155863.61 
   56600    1233.4667    6597829.9    6724.9433    48.731617    2.3577398    153063.05    155982.37 
   56700    1234.9058    6599231.6    6724.9433    48.731617    2.3577398    153095.35    156018.08 
   56800    1215.2883    6597607.1    6724.9433    48.731617    2.3577398    153065.86    155942.16 
   56900    1192.3749    6595101.8    6724.9433    48.731617    2.3577398    153013.51    155835.58 
   57000    1173.4493    6594626.1    6724.9433    48.731617    2.3577398    153009.54    155786.82 
   57100     1192.852    6595361.2    6724.9433    48.731617    2.3577398     153019.3     155842.5 
   57200      1210.68    6598759.4    6724.9433    48.731617    2.3577398    153095.62    155961.01 
   57300    1236.3726    6599255.2    6724.9433    48.731617    2.3577398     153095.3    156021.51 
   57400    1255.5488    6596276.3    6724.9433    48.731617    2.3577398     153017.7    155989.29 
   57500    1195.0249      6596338    6724.9433    48.731617    2.3577398    153041.86     155870.2 
   57600    1194.0044    6592739.4    6724.9433    48.731617    2.3577398     152954.4    155780.33 
   57700     1193.907    6593902.7    6724.9433    48.731617    2.3577398    152985.33    155811.02 
   57800    1230.4576    6595311.7    6724.9433    48.731617    2.3577398    153004.48    155916.68 
   57900    1218.0978    6600500.2    6724.9433    48.731617    2.3577398    153134.61    156017.56 
   58000    1187.2065    6602593.6    6724.9433    48.731617    2.3577398    153195.75    156005.59 
   58100    1219.8805      6595872    6724.9433    48.731617    2.3577398     153021.6    155908.77 
   58200    1214.9497    6592361.8    6724.9433    48.731617    2.3577398    152937.41    155812.91 
   58300    1205.2644    6592549.1    6724.9433    48.731617    2.3577398    152946.62    155799.19 
   58400    1213.4243      6595145    6724.9433    48.731617    2.3577398    153006.27    155878.16 
   58500    1209.8618    6599463.6    6724.9433    48.731617    2.3577398    153112.68    155976.14 
   58600     1219.071    6600258.4    6724.9433    48.731617    2.3577398     153128.7    156013.95 
   58700    1187.2805    6600119.2    6724.9433    48.731617    2.3577398    153137.14    155947.16 
   58800    1166.1914    6597488.8    6724.9433    48.731617    2.3577398    153082.99    155843.09 
   58900    1169.0766      6596298    6724.9433    48.731617    2.3577398    153050.78     155817.7 
   59000    1146.2346    6599903.2    6724.9433    48.731617    2.3577398    153147.96    155860.82 
   59100    1213.1731    6597659.6    6724.9433    48.731617    2.3577398    153068.09    155939.38 
   59200    1261.6834    6595349.6    6724.9433    48.731617    2.3577398    152992.41    155978.51 
   59300    1210.8184    6598193.6    6724.9433    48.731617    2.3577398    153080.68     155946.4 
   59400    1177.0936    6598350.6    6724.9433    48.731617    2.3577398    153098.82    155884.72 
   59500    1135.5234    6599892.8    6724.9433    48.731617    2.3577398    153151.59     155839.1 
   59600    1216.2714    6593679.4    6724.9433    48.731617    2.3577398    152970.53    155849.16 
   59700    1211.6677    6596372.1    6724.9433    48.731617    2.3577398    153035.56    155903.29 
   59800    1267.1553    6594127.9    6724.9433    48.731617    2.3577398    152961.53    155960.59 
   59900    1187.8002    6600444.8    6724.9433    48.731617    2.3577398    153145.14    155956.38 
   60000    1211.9493    6596923.6    6724.9433    48.731617    2.3577398    153049.71    155918.11 
   60100    1161.0179    6599111.2    6724.9433    48.731617    2.3577398    153124.63    155872.49 
   60200    1212.3891    6594332.8    6724.9433    48.731617    2.3577398    152986.69    155856.13 
   60300    1213.3414    6594997.9    6724.9433    48.731617    2.3577398    153003.31       155875 
   60400    1207.7939    6596945.8    6724.9433    48.731617    2.3577398    153051.39    155909.95 
   60500    1231.0424    6595963.7    6724.9433    48.731617    2.3577398    153020.01    155933.59 
   60600    1191.8795    6599322.8    6724.9433    48.731617    2.3577398    153115.49    155936.39 
   60700    1243.6037    6594351.6    6724.9433    48.731617    2.3577398    152975.92    155919.23 
   60800    1239.6515    6593245.5    6724.9433    48.731617    2.3577398    152950.81    155884.78 
   60900    1262.6873      6590416    6724.9433    48.731617    2.3577398    152872.71    155861.19 
   61000    1219.0758    6593973.6    6724.9433    48.731617    2.3577398    152974.36    155859.62 
   61100    1183.6556    6599288.4    6724.9433    48.731617    2.3577398    153116.98    155918.41 
   61200    1227.7725      6597558    6724.9433    48.731617    2.3577398    153059.43    155965.28 
   61300    1264.6876    6594246.3    6724.9433    48.731617    2.3577398    152963.62    155956.84 
   61400    1231.9295    6594083.8    6724.9433    48.731617    2.3577398    152974.09    155889.77 
   61500    1161.3625    6597699.2    6724.9433    48.731617    2.3577398    153088.27    155836.94 
   61600    1177.0805    6596418.8    6724.9433    48.731617    2.3577398    153051.48    155837.35 
   61700    1174.9983    6598671.2    6724.9433    48.731617    2.3577398    153105.13    155886.07 
   61800    1210.0549    6598677.3    6724.9433    48.731617    2.3577398    153094.45    155958.36 
   61900    1251.2262    6596413.4    6724.9433    48.731617    2.3577398    153022.67    155984.03 
   62000    1191.6476    6599265.4    6724.9433    48.731617    2.3577398    153114.96     155935.3 
   62100    1242.4632    6592347.5    6724.9433    48.731617    2.3577398    152926.59    155867.21 
   62200    1195.0837      6594629    6724.9433    48.731617    2.3577398    153000.58    155829.06 
   62300    1151.2062    6599519.3    6724.9433    48.731617    2.3577398    153137.44    155862.08 
   62400    1147.0367    6602991.1    6724.9433    48.731617    2.3577398    153222.18    155936.94 
   62500    1213.7497    6600122.4    6724.9433    48.731617    2.3577398     153127.1    155999.76 
   62600    1247.4785    6596371.3    6724.9433    48.731617    2.3577398    153021.88    155974.36 
   62700    1187.2519    6596899.7    6724.9433    48.731617    2.3577398    153058.59    155868.54 
   62800    1167.9599    6595910.6    6724.9433    48.731617    2.3577398    153042.74    155807.02 
   62900    1177.2289    6596133.8    6724.9433    48.731617    2.3577398    153044.06    155830.28 
   63000    1206.3616    6596694.7    6724.9433    48.731617    2.3577398    153046.82    155901.99 
   63100     1225.256      6598837    6724.9433    48.731617    2.3577398    153089.81     155989.7 
   63200    1210.7325    6600870.3    6724.9433    48.731617    2.3577398    153145.91    156011.43 
   63300     1225.265    6596131.6    6724.9433    48.731617    2.3577398    153025.66    155925.57 
   63400    1206.2977    6593388.2    6724.9433    48.731617    2.3577398    152967.16    155822.18 
   63500    1212.9605    6591620.3    6724.9433    48.731617    2.3577398    152919.77    155790.56 
   63600    1215.6737    6594518.8    6724.9433    48.731617    2.3577398    152990.24    155867.45 
   63700    1225.6837    6597850.3    6724.9433    48.731617    2.3577398    153067.09    155967.99 
   63800    1222.0571    6600450.9    6724.9433    48.731617    2.3577398    153131.87    156024.19 
   63900    1211.0962    6599284.9    6724.9433    48.731617    2.3577398    153107.67    155974.05 
   64000    1214.8237    6594014.3    6724.9433    48.731617    2.3577398    152977.83    155853.03 
   64100    1161.2798    6595289.3    6724.9433    48.731617    2.3577398    153028.32     155776.8 
   64200    1133.6319    6599341.2    6724.9433    48.731617    2.3577398    153141.06     155824.1 
   64300     1186.909    6599811.4    6724.9433    48.731617    2.3577398    153130.19    155939.32 
   64400    1274.9872    6595951.2    6724.9433    48.731617    2.3577398    153002.11    156019.71 
   64500    1199.0884      6600665    6724.9433    48.731617    2.3577398    153146.57    155984.53 
   64600    1210.0359    6596331.8    6724.9433    48.731617    2.3577398    153036.87    155900.74 
   64700    1198.3026    6593212.2    6724.9433    48.731617    2.3577398    152965.84    155801.94 
   64800    1164.4575    6595834.9    6724.9433    48.731617    2.3577398    153041.71    155797.71 
   64900    1201.8309      6596774    6724.9433    48.731617    2.3577398    153050.82    155895.26 
   65000    1202.1421      6601040    6724.9433    48.731617    2.3577398    153154.59    155999.78 
   65100    1235.1895    6598381.6    6724.9433    48.731617    2.3577398    153076.97    156000.37 
   65200    1187.1196    6599166.5    6724.9433    48.731617    2.3577398    153114.12    155923.75 
   65300    1172.4637    6596848.5    6724.9433    48.731617    2.3577398    153063.63    155838.58 
   65400    1185.7046    6594736.5    6724.9433    48.731617    2.3577398    153005.78    155812.06 
   65500    1201.2709    6595883.3    6724.9433    48.731617    2.3577398    153029.44    155872.56 
   65600    1201.1975    6599687.4    6724.9433    48.731617    2.3577398    153120.54    155963.49 
   65700    1219.2766    6599623.5    6724.9433    48.731617    2.3577398    153113.27    155999.01 
   65800    1186.5688    6600181.5    6724.9433    48.731617    2.3577398    153138.29    155946.62 
   65900    1225.6218    6593272.4    6724.9433    48.731617    2.3577398    152955.12    155855.87 
   66000    1227.0336    6591077.2    6724.9433    48.731617    2.3577398    152903.45    155807.55 
   66100    1188.6901    6596003.8    6724.9433    48.731617    2.3577398    153037.71    155851.06 
   66200    1236.1092    6595813.3    6724.9433    48.731617    2.3577398    153013.91    155939.49 
   66300    1238.7092    6597716.4    6724.9433    48.731617    2.3577398    153058.69    155990.42 
   66400    1208.7275    6598870.1    6724.9433    48.731617    2.3577398    153098.89    155959.66 
   66500    1170.9053    6598701.3    6724.9433    48.731617    2.3577398    153109.39    155880.64 
   66600    1145.3669    6598846.1    6724.9433    48.731617    2.3577398    153123.95    155834.76 
   66700    1185.9138    6595810.7    6724.9433    48.731617    2.3577398    153032.85    155839.63 
   66800    1230.4656    6594767.3    6724.9433    48.731617    2.3577398    152990.31    155902.53 
   66900    1248.5799    6596557.3    6724.9433    48.731617    2.3577398    153026.74    155981.84 
   67000    1233.7567      6597495    6724.9433    48.731617    2.3577398    153056.01    155976.02 
   67100    1217.1227    6596044.5    6724.9433    48.731617    2.3577398    153027.81    155908.46 
   67200    1207.4333    6594767.2    6724.9433    48.731617    2.3577398    153000.58    155858.29 
   67300    1181.0824    6596631.3    6724.9433    48.731617    2.3577398    153055.49    155850.84 
   67400    1225.7624      6593851    6724.9433    48.731617    2.3577398     152970.4    155871.49 
   67500    1200.8461      6598137    6724.9433    48.731617    2.3577398       153083    155925.12 
   67600    1228.6561    6597381.5    6724.9433    48.731617    2.3577398    153054.77    155962.71 
   67700    1263.4438    6594106.2    6724.9433    48.731617    2.3577398    152961.43     155951.7 
   67800    1168.4834    6599381.4    6724.9433    48.731617    2.3577398    153127.35    155892.87 
   67900    1199.1118      6594792    6724.9433    48.731617    2.3577398    153003.61    155841.63 
   68000    1223.6676    6592614.8    6724.9433    48.731617    2.3577398    152940.18    155836.31 
   68100      1154.55    6600490.1    6724.9433    48.731617    2.3577398    153158.96     155891.5 
   68200    1170.8728    6601888.3    6724.9433    48.731617    2.3577398    153187.29    155958.47 
   68300    1213.2501    6599779.9    6724.9433    48.731617    2.3577398    153119.94    155991.41 
   68400    1193.9698    6599486.2    6724.9433    48.731617    2.3577398    153119.87    155945.71 
   68500    1182.5737    6597219.8    6724.9433    48.731617    2.3577398    153069.45    155868.32 
   68600    1166.3471      6596058    6724.9433    48.731617    2.3577398    153047.05    155807.51 
   68700    1169.4884    6596743.6    6724.9433    48.731617    2.3577398    153061.36    155829.26 
   68800    1245.8658    6594896.7    6724.9433    48.731617    2.3577398    152987.81    155936.48 
   68900    1168.3752    6603798.3    6724.9433    48.731617    2.3577398    153233.62    155998.89 
   69000     1209.625    6599111.4    6724.9433    48.731617    2.3577398    153104.47    155967.37 
   69100    1199.5076    6597798.5    6724.9433    48.731617    2.3577398    153076.58    155915.53 
   69200    1196.9097    6595145.6    6724.9433    48.731617    2.3577398    153013.58    155846.38 
   69300    1140.6332    6597529.2    6724.9433    48.731617    2.3577398    153092.61    155792.21 
   69400    1221.7662    6593304.6    6724.9433    48.731617    2.3577398     152958.2    155849.83 
   69500    1185.0915      6601257    6724.9433    48.731617    2.3577398    153166.09    155970.92 
   69600    1266.5445      6597330    6724.9433    48.731617    2.3577398    153038.61    156036.22 
   69700    1222.1678    6597714.8    6724.9433    48.731617    2.3577398    153065.27    155957.86 
   69800    1247.3938    6591304.6    6724.9433    48.731617    2.3577398    152899.99    155852.27 
   69900    1183.3298    6594170.3    6724.9433    48.731617    2.3577398    152993.67    155794.33 
   70000    1189.0099    6594152.2    6724.9433    48.731617    2.3577398    152991.94    155806.05 
   70100    1221.5725    6595902.5    6724.9433    48.731617    2.3577398    153022.23    155913.41 
   70200    1271.2602    6596890.7    6724.9433    48.731617    2.3577398    153026.96    156035.73 
   70300    1189.8729    6603728.9    6724.9433    48.731617    2.3577398     153222.9    156039.05 
   70400    1150.6673    6600375.3    6724.9433    48.731617    2.3577398    153156.89    155880.25 
   70500    1204.1725    6591078.7    6724.9433    48.731617    2.3577398    152912.31     155762.3 
   70600     1165.522    6594757.4    6724.9433    48.731617    2.3577398    153015.13    155773.65 
   70700    1159.0895    6599891.5    6724.9433    48.731617    2.3577398    153142.14    155885.43 
   70800    1229.3777    6599372.2    6724.9433    48.731617    2.3577398    153102.63    156012.27 
   70900    1196.8376    6603721.3    6724.9433    48.731617    2.3577398    153220.23    156052.86 
   71000    1233.2622    6596974.3    6724.9433    48.731617    2.3577398    153043.57    155962.41 
   71100    1182.2636    6594996.3    6724.9433    48.731617    2.3577398    153015.22    155813.36 
   71200    1145.6099    6595052.2    6724.9433    48.731617    2.3577398    153030.31    155741.69 
   71300    1209.4223    6593560.9    6724.9433    48.731617    2.3577398       152970    155832.42 
   71400    1221.9497      6599302    6724.9433    48.731617    2.3577398    153102.77    155994.84 
   71500    1244.7523    6600679.5    6724.9433    48.731617    2.3577398    153127.79    156073.83 
   71600    1219.9828    6598560.2    6724.9433    48.731617    2.3577398    153087.22    155974.63 
   71700    1148.9996    6598219.2    6724.9433    48.731617    2.3577398    153104.81    155824.22 
   71800    1163.1377    6593838.3    6724.9433    48.731617    2.3577398    152995.31    155748.18 
   71900    1171.8184    6595403.5    6724.9433    48.731617    2.3577398    153029.26    155802.68 
   72000    1267.0964    6594030.4    6724.9433    48.731617    2.3577398    152958.41    155957.33 
   72100    1233.1911      6601378    6724.9433    48.731617    2.3577398    153150.49    156069.16 
   72200    1221.5382    6600047.2    6724.9433    48.731617    2.3577398    153120.87    156011.96 
   72300    1212.3585    6594411.5    6724.9433    48.731617    2.3577398    152988.15    155857.51 
   72400    1147.5001    6595078.5    6724.9433    48.731617    2.3577398    153030.25    155746.11 
   72500    1171.3445    6594797.6    6724.9433    48.731617    2.3577398    153016.77    155789.06 
   72600    1195.8759    6598499.6    6724.9433    48.731617    2.3577398    153093.57    155923.92 
   72700    1247.6256      6599089    6724.9433    48.731617    2.3577398    153089.67    156042.51 
   72800    1249.2549    6598582.1    6724.9433    48.731617    2.3577398    153075.67    156032.36 
   72900    1193.8809    6597837.5    6724.9433    48.731617    2.3577398    153078.56     155904.2 
   73000    1159.7814    6594871.7    6724.9433    48.731617    2.3577398    153020.95    155765.88 
   73100    1191.8605      6591840    6724.9433    48.731617    2.3577398    152934.58    155755.43 
   73200    1190.7148    6597007.9    6724.9433    48.731617    2.3577398     153060.4    155878.54 
   73300     1204.777    6602338.5    6724.9433    48.731617    2.3577398    153184.16    156035.58 
   73400    1214.8017      6602073    6724.9433    48.731617    2.3577398    153174.79    156049.94 
   73500    1195.5685    6599144.8    6724.9433    48.731617    2.3577398    153109.94    155939.57 
   73600    1134.7792    6598670.8    6724.9433    48.731617    2.3577398    153122.58    155808.33 
   73700     1197.312    6591455.3    6724.9433    48.731617    2.3577398    152924.01    155757.76 
   73800    1200.6482    6593929.3    6724.9433    48.731617    2.3577398    152982.19    155823.84 
   73900    1245.0341    6596054.3    6724.9433    48.731617    2.3577398    153015.88    155962.58 
   74000    1220.3169    6602032.7    6724.9433    48.731617    2.3577398    153170.74    156058.94 
   74100    1182.8556    6603410.1    6724.9433    48.731617    2.3577398    153219.67     156019.2 
   74200    1190.3381    6596293.2    6724.9433    48.731617    2.3577398    153043.02    155860.26 
   74300    1162.0243    6593922.3    6724.9433    48.731617    2.3577398    152997.29    155747.52 
   74400    1118.9172    6598839.1    6724.9433    48.731617    2.3577398    153132.68    155780.89 
   74500    1223.7674    6596178.8    6724.9433    48.731617    2.3577398     153026.6    155922.97 
   74600    1248.9256    6598793.1    6724.9433    48.731617    2.3577398    153080.24    156036.16 
   74700    1219.2211    6601248.7    6724.9433    48.731617    2.3577398    153152.34    156037.95 
   74800    1213.3624    6597172.8    6724.9433    48.731617    2.3577398    153056.14    155927.88 
   74900    1208.6883    6591793.4    6724.9433    48.731617    2.3577398    152926.34    155787.02 
   75000    1149.5482    6594756.7    6724.9433    48.731617    2.3577398    153020.13    155740.84 
   75100    1162.8012    6598699.4    6724.9433    48.731617    2.3577398    153112.83     155864.9 
   75200    1206.6546    6601446.7    6724.9433    48.731617    2.3577398    153161.19    156017.05 
   75300    1281.5157    6597233.8    6724.9433    48.731617    2.3577398    153031.24    156064.29 
   75400    1262.8769    6594253.5    6724.9433    48.731617    2.3577398     152965.2    155954.13 
   75500    1147.8867    6598062.9    6724.9433    48.731617    2.3577398    153103.22       155820 
   75600    1193.1189    6591796.1    6724.9433    48.731617    2.3577398    152933.27     155757.1 
   75700    1179.6529    6594829.9    6724.9433    48.731617    2.3577398    153012.43    155804.39 
[...]
  381700    1189.9924    6601410.9    6724.9433    48.731617    2.3577398    153167.95    155984.38 
  381800    1258.3917    6600703.4    6724.9433    48.731617    2.3577398    153122.47    156100.78 
  381900    1223.4975    6599099.9    6724.9433    48.731617    2.3577398    153098.81    155994.53 
  382000    1201.4207    6595412.3    6724.9433    48.731617    2.3577398    153017.06    155860.54 
  382100    1198.9467    6595046.7    6724.9433    48.731617    2.3577398    153009.56    155847.18 
  382200    1187.6499    6597303.2    6724.9433    48.731617    2.3577398    153067.74    155878.63 
  382300    1218.5002    6597501.4    6724.9433    48.731617    2.3577398    153061.81    155945.71 
  382400    1237.5758    6604493.9    6724.9433    48.731617    2.3577398    153222.78    156151.83 
  382500    1318.7102    6599254.3    6724.9433    48.731617    2.3577398    153064.45    156185.53 
  382600    1173.4752    6602210.9    6724.9433    48.731617    2.3577398    153194.28    155971.61 
  382700     1183.348    6598382.7    6724.9433    48.731617    2.3577398    153097.88    155898.59 
  382800    1223.3598    6593676.4    6724.9433    48.731617    2.3577398     152967.3     155862.7 
  382900    1149.4011    6598902.8    6724.9433    48.731617    2.3577398    153122.55    155842.91 
  383000    1230.5199    6594129.4    6724.9433    48.731617    2.3577398    152974.97    155887.32 
  383100    1248.2737      6598516    6724.9433    48.731617    2.3577398    153074.22    156028.59 
  383200    1271.5024    6599043.5    6724.9433    48.731617    2.3577398    153078.42    156087.76 
  383300    1198.8216    6598067.8    6724.9433    48.731617    2.3577398    153083.25    155920.58 
  383400    1152.6008    6596207.9    6724.9433    48.731617    2.3577398    153055.87    155783.81 
  383500    1183.4572    6594996.5    6724.9433    48.731617    2.3577398    153012.86    155813.82 
  383600    1140.3745    6602216.7    6724.9433    48.731617    2.3577398    153207.47    155906.46 
  383700    1220.0311    6601063.3    6724.9433    48.731617    2.3577398     153146.3    156033.83 
  383800     1288.858    6600278.1    6724.9433    48.731617    2.3577398    153101.38     156151.8 
  383900    1265.2192    6604300.3    6724.9433    48.731617    2.3577398    153208.84    156203.31 
  384000    1205.7365    6600227.1    6724.9433    48.731617    2.3577398    153132.76    155986.46 
  384100    1202.2798    6595285.3    6724.9433    48.731617    2.3577398    153014.38    155859.89 
  384200    1138.5776    6598004.5    6724.9433    48.731617    2.3577398     153104.8    155799.54 
  384300    1201.4115    6594343.3    6724.9433    48.731617    2.3577398    152991.54       155835 
  384400    1235.1879    6598891.5    6724.9433    48.731617    2.3577398    153088.77    156012.17 
  384500    1246.4236    6601717.6    6724.9433    48.731617    2.3577398    153152.36    156102.35 
  384600    1258.5097    6596474.8    6724.9433    48.731617    2.3577398    153021.08    155999.67 
  384700     1201.996    6597322.3    6724.9433    48.731617    2.3577398    153064.75    155909.59 
  384800    1208.3377    6596087.8    6724.9433    48.731617    2.3577398    153031.54    155891.39 
  384900    1182.1932    6598001.5    6724.9433    48.731617    2.3577398    153087.82    155885.79 
  385000    1209.5667    6595901.7    6724.9433    48.731617    2.3577398    153025.15    155887.91 
  385100    1186.7405    6598230.3    6724.9433    48.731617    2.3577398    153092.22    155900.95 
  385200    1192.9235    6599561.8    6724.9433    48.731617    2.3577398    153121.95    155945.32 
  385300    1188.9133    6601023.8    6724.9433    48.731617    2.3577398    153158.39    155972.26 
  385400     1156.996    6600922.8    6724.9433    48.731617    2.3577398    153168.15    155906.48 
  385500    1158.0899    6595317.2    6724.9433    48.731617    2.3577398    153031.53    155772.45 
  385600    1168.3411    6593164.4    6724.9433    48.731617    2.3577398    152976.04    155741.22 
  385700    1206.7953    6596560.2    6724.9433    48.731617    2.3577398    153042.89    155899.09 
  385800    1226.9967    6601144.8    6724.9433    48.731617    2.3577398    153146.56    156050.57 
  385900    1222.1476    6600124.9    6724.9433    48.731617    2.3577398    153124.05    156016.58 
  386000    1184.0661    6597251.1    6724.9433    48.731617    2.3577398    153069.38    155871.78 
  386100    1200.7306    6592596.2    6724.9433    48.731617    2.3577398    152949.19    155791.04 
  386200    1203.1591    6593300.1    6724.9433    48.731617    2.3577398    152966.25    155813.84 
  386300    1234.8579    6592762.8    6724.9433    48.731617    2.3577398    152939.24    155861.86 
  386400    1171.0911    6599159.4    6724.9433    48.731617    2.3577398       153121    155892.69 
  386500    1237.5931    6597000.9    6724.9433    48.731617    2.3577398    153040.84    155969.93 
  386600    1260.4954    6603414.1    6724.9433    48.731617    2.3577398    153187.79    156171.08 
  386700    1218.0334    6604850.7    6724.9433    48.731617    2.3577398    153239.44    156122.24 
  386800    1228.5876      6596663    6724.9433    48.731617    2.3577398    153037.03    155944.81 
  386900    1194.7308    6597136.1    6724.9433    48.731617    2.3577398    153061.08    155888.73 
  387000    1146.4755    6599661.9    6724.9433    48.731617    2.3577398    153141.45    155854.89 
  387100    1181.0846    6596871.8    6724.9433    48.731617    2.3577398    153060.37    155855.72 
  387200    1205.9976    6597661.6    6724.9433    48.731617    2.3577398    153070.61    155924.93 
  387300    1222.3808    6601783.2    6724.9433    48.731617    2.3577398    153164.25    156057.34 
  387400    1264.4541    6598715.6    6724.9433    48.731617    2.3577398     153072.7    156065.36 
  387500    1193.2439    6595966.8    6724.9433    48.731617    2.3577398    153033.83    155857.96 
  387600    1201.7819    6592159.8    6724.9433    48.731617    2.3577398    152936.54    155780.87 
  387700    1205.0791    6593490.5    6724.9433    48.731617    2.3577398    152969.88    155822.02 
  387800    1199.8615      6598934    6724.9433    48.731617    2.3577398    153103.13    155942.92 
  387900    1232.7939    6599927.4    6724.9433    48.731617    2.3577398    153114.78    156032.51 
  388000     1201.982    6599614.3    6724.9433    48.731617    2.3577398    153119.69    155964.49 
  388100    1150.9935    6592924.4    6724.9433    48.731617    2.3577398    152975.97     155700.1 
  388200    1147.8935    6594610.8    6724.9433    48.731617    2.3577398    153019.61    155736.41 
  388300    1149.3516    6601276.5    6724.9433    48.731617    2.3577398    153180.42    155900.66 
  388400      1231.71    6598371.1    6724.9433    48.731617    2.3577398     153077.2    155992.36 
  388500    1202.6739    6599894.1    6724.9433    48.731617    2.3577398    153125.52    155971.97 
  388600    1157.1611    6596901.9    6724.9433    48.731617    2.3577398    153071.23    155809.96 
  388700    1146.0649    6591982.2    6724.9433    48.731617    2.3577398    152955.54    155668.01 
  388800    1122.0452    6596532.3    6724.9433    48.731617    2.3577398    153076.94    155732.55 
  388900    1183.1208    6595954.2    6724.9433    48.731617    2.3577398    153037.42    155837.59 
  389000    1245.4505      6594400    6724.9433    48.731617    2.3577398    152976.64    155924.33 
  389100    1238.6993    6596393.9    6724.9433    48.731617    2.3577398    153027.49    155959.19 
  389200    1247.5761      6596168    6724.9433    48.731617    2.3577398    153018.06    155970.78 
  389300    1156.6763    6598190.1    6724.9433    48.731617    2.3577398    153102.24    155839.82 
  389400     1204.693      6590134    6724.9433    48.731617    2.3577398    152886.64    155737.87 
  389500    1205.2289    6592079.1    6724.9433    48.731617    2.3577398    152936.05    155788.54 
  389600    1178.2358    6601416.9    6724.9433    48.731617    2.3577398    153172.86    155961.47 
  389700    1234.3541    6599072.7    6724.9433    48.731617    2.3577398    153094.25    156015.67 
  389800    1233.0728    6597392.8    6724.9433    48.731617    2.3577398    153052.93    155971.32 
  389900    1192.5968    6597997.6    6724.9433    48.731617    2.3577398     153083.8    155906.39 
  390000    1204.4846    6596073.8    6724.9433    48.731617    2.3577398    153032.63    155883.36 
  390100    1181.6381    6597964.8    6724.9433    48.731617    2.3577398    153086.15     155882.8 
  390200    1192.0732    6597295.6    6724.9433    48.731617    2.3577398    153067.01    155888.37 
  390300    1196.1495    6598898.6    6724.9433    48.731617    2.3577398    153103.35    155934.36 
  390400    1247.6113    6601031.5    6724.9433    48.731617    2.3577398    153136.23    156089.03 
  390500    1227.5969    6605565.8    6724.9433    48.731617    2.3577398    153253.02    156158.45 
  390600    1211.0646    6599553.2    6724.9433    48.731617    2.3577398    153113.95    155980.25 
  390700    1142.7111    6600187.6    6724.9433    48.731617    2.3577398    153156.07    155860.59 
  390800    1192.8869    6595440.9    6724.9433    48.731617    2.3577398    153022.34    155845.62 
  390900    1209.9536    6594820.2    6724.9433    48.731617    2.3577398    153000.22    155863.89 
  391000    1237.3077    6598303.6    6724.9433    48.731617    2.3577398    153072.11    156000.52 
  391100    1245.3755    6602388.4    6724.9433    48.731617    2.3577398    153170.82    156118.33 
  391200    1253.6455    6597207.2    6724.9433    48.731617    2.3577398     153040.4    156007.48 
  391300    1154.6279    6597382.3    6724.9433    48.731617    2.3577398    153083.11    155815.84 
  391400    1155.9148    6597402.1    6724.9433    48.731617    2.3577398    153084.47    155820.25 
  391500    1179.6054    6597817.6    6724.9433    48.731617    2.3577398    153084.37    155876.22 
  391600    1218.6339    6599615.2    6724.9433    48.731617    2.3577398     153112.1    155996.31 
  391700    1206.5227    6603660.6    6724.9433    48.731617    2.3577398    153214.93    156070.48 
  391800    1212.7474    6597447.7    6724.9433    48.731617    2.3577398    153063.18    155933.47 
  391900    1189.2597    6592763.1    6724.9433    48.731617    2.3577398    152957.43    155772.12 
  392000    1175.2791    6594798.4    6724.9433    48.731617    2.3577398    153012.52    155794.13 
  392100    1203.3928    6598737.3    6724.9433    48.731617    2.3577398    153097.88    155946.02 
  392200    1257.4684    6597035.2    6724.9433    48.731617    2.3577398    153034.86    156010.99 
  392300    1209.3242    6599367.6    6724.9433    48.731617    2.3577398    153111.43    155973.61 
  392400    1224.1406    6596094.3    6724.9433    48.731617    2.3577398    153026.13    155923.38 
  392500    1210.1028    6596336.9    6724.9433    48.731617    2.3577398    153037.26    155901.29 
  392600    1169.7139    6598469.6    6724.9433    48.731617    2.3577398    153104.46    155872.89 
  392700    1193.1122    6596676.1    6724.9433    48.731617    2.3577398    153050.44    155874.26 
  392800     1231.472    6597591.7    6724.9433    48.731617    2.3577398    153058.94    155973.54 
  392900    1240.7361    6600710.5    6724.9433    48.731617    2.3577398    153129.56    156066.09 
  393000    1213.7855    6600097.6    6724.9433    48.731617    2.3577398    153126.69    155999.43 
  393100    1160.5961    6595792.4    6724.9433    48.731617    2.3577398    153043.48    155790.34 
  393200    1179.6362    6593672.7    6724.9433    48.731617    2.3577398    152981.96    155773.88 
  393300    1166.4647    6598614.3    6724.9433    48.731617    2.3577398    153109.39    155870.14 
  393400    1223.8258    6598393.6    6724.9433    48.731617    2.3577398    153081.61    155978.12 
  393500    1201.0193    6600327.2    6724.9433    48.731617    2.3577398    153137.91    155980.44 
  393600    1202.4313    6599177.6    6724.9433    48.731617    2.3577398    153107.51    155953.38 
  393700    1219.1827    6596408.4    6724.9433    48.731617    2.3577398    153034.39    155919.91 
  393800    1194.8995    6595463.9    6724.9433    48.731617    2.3577398    153022.72    155850.76 
  393900    1182.4791    6594731.9    6724.9433    48.731617    2.3577398    153009.23    155807.87 
  394000    1220.9077    6594017.3    6724.9433    48.731617    2.3577398    152976.58    155866.18 
  394100    1238.6563    6598596.5    6724.9433    48.731617    2.3577398    153080.59    156012.19 
  394200     1252.987    6598997.4    6724.9433    48.731617    2.3577398    153083.79    156049.31 
  394300     1199.019    6598143.3    6724.9433    48.731617    2.3577398    153085.43    155923.23 
  394400    1174.4691      6593536    6724.9433    48.731617    2.3577398    152982.12    155761.81 
  394500    1164.8013    6594798.2    6724.9433    48.731617    2.3577398    153017.33    155774.14 
  394600    1197.4672    6595603.8    6724.9433    48.731617    2.3577398    153022.77    155856.89 
  394700    1222.9914    6596552.5    6724.9433    48.731617    2.3577398    153035.72    155930.25 
  394800    1207.9559      6598672    6724.9433    48.731617    2.3577398    153093.52    155952.47 
  394900    1233.8454    6595344.6    6724.9433    48.731617    2.3577398    153003.25    155923.47 
  395000    1168.0984    6599217.6    6724.9433    48.731617    2.3577398     153122.9    155887.51 
  395100    1206.2817    6596215.1    6724.9433    48.731617    2.3577398    153035.27    155890.26 
  395200    1226.4177    6596042.1    6724.9433    48.731617    2.3577398    153023.44    155926.08 
  395300    1214.0674    6602376.9    6724.9433    48.731617    2.3577398    153181.28    156054.69 
  395400    1236.0501    6600903.3    6724.9433    48.731617    2.3577398    153137.33    156062.77 
  395500    1193.7645    6597791.8    6724.9433    48.731617    2.3577398    153078.59    155903.94 
  395600     1137.602    6597635.9    6724.9433    48.731617    2.3577398    153096.17    155788.61 
  395700    1152.4683    6597064.4    6724.9433    48.731617    2.3577398    153076.87    155804.49 
  395800    1179.4658    6599708.5    6724.9433    48.731617    2.3577398    153130.02    155921.53 
  395900    1249.1212    6599288.3    6724.9433    48.731617    2.3577398    153094.71    156051.09 
  396000    1282.4912    6600551.9    6724.9433    48.731617    2.3577398    153111.96    156147.32 
  396100    1249.9246    6603865.3    6724.9433    48.731617    2.3577398    153202.23    156160.51 
  396200    1182.6898    6600576.6    6724.9433    48.731617    2.3577398    153150.02    155949.17 
  396300     1228.318    6592007.3    6724.9433    48.731617    2.3577398    152924.29    155831.43 
  396400    1159.0407    6595585.1    6724.9433    48.731617    2.3577398    153039.76    155782.94 
  396500    1188.8231    6596466.4    6724.9433    48.731617    2.3577398    153047.65    155861.31 
  396600    1194.1974      6603077    6724.9433    48.731617    2.3577398    153207.36    156033.74 
  396700    1245.1794    6599839.9    6724.9433    48.731617    2.3577398     153107.6    156054.64 
  396800    1261.4868    6594335.7    6724.9433    48.731617    2.3577398    152967.01    155952.65 
  396900    1205.5502    6596990.1    6724.9433    48.731617    2.3577398    153054.41    155907.66 
  397000    1200.5281    6596873.2    6724.9433    48.731617    2.3577398    153054.25    155895.62 
  397100    1176.2144    6597267.8    6724.9433    48.731617    2.3577398    153072.42    155856.24 
  397200    1223.1013    6592622.4    6724.9433    48.731617    2.3577398     152942.2    155836.99 
  397300     1199.384      6595621    6724.9433    48.731617    2.3577398    153024.53    155863.19 
  397400    1212.1974    6598590.5    6724.9433    48.731617    2.3577398    153090.15    155959.13 
  397500    1248.9982    6598624.1    6724.9433    48.731617    2.3577398    153076.02    156032.11 
  397600    1245.8738    6598376.2    6724.9433    48.731617    2.3577398    153072.78    156021.47 
  397700    1145.6953    6597764.3    6724.9433    48.731617    2.3577398    153096.06    155807.65 
  397800     1149.622    6595858.5    6724.9433    48.731617    2.3577398    153048.47    155769.35 
  397900    1197.5008    6595630.1    6724.9433    48.731617    2.3577398    153025.13    155859.33 
  398000     1254.019    6596325.3    6724.9433    48.731617    2.3577398    153019.24     155987.2 
  398100     1229.451    6600007.3    6724.9433    48.731617    2.3577398    153116.72    156026.54 
  398200    1175.8137    6594869.8    6724.9433    48.731617    2.3577398    153014.18    155797.06 
  398300    1102.3648    6596214.4    6724.9433    48.731617    2.3577398    153075.11    155684.14 
  398400     1229.515    6590444.9    6724.9433    48.731617    2.3577398    152885.44    155795.41 
  398500    1215.3323    6597840.2    6724.9433    48.731617    2.3577398    153071.62    155948.02 
  398600    1227.8619      6599357    6724.9433    48.731617    2.3577398    153102.23    156008.29 
  398700    1182.3052    6600387.7    6724.9433    48.731617    2.3577398    153145.49    155943.72 
  398800    1128.1204    6596111.3    6724.9433    48.731617    2.3577398    153063.72    155733.71 
  398900     1178.134    6590881.5    6724.9433    48.731617    2.3577398    152916.71    155705.08 
  399000    1194.0542    6593338.4    6724.9433    48.731617    2.3577398    152970.38    155796.43 
  399100    1202.1424    6596759.1    6724.9433    48.731617    2.3577398    153049.75    155894.94 
  399200    1215.1243    6598348.5    6724.9433    48.731617    2.3577398    153082.78    155958.69 
  399300    1207.5529    6599728.4    6724.9433    48.731617    2.3577398    153119.61     155977.6 
  399400    1195.0796    6596563.2    6724.9433    48.731617    2.3577398    153048.55    155877.02 
  399500    1174.2361      6592381    6724.9433    48.731617    2.3577398    152955.32    155734.46 
  399600    1157.9243    6594251.9    6724.9433    48.731617    2.3577398    153006.53    155747.06 
  399700    1227.5246    6595630.2    6724.9433    48.731617    2.3577398    153012.16    155917.42 
  399800    1237.7544    6597506.4    6724.9433    48.731617    2.3577398    153053.92    155983.39 
  399900    1164.9744    6602328.9    6724.9433    48.731617    2.3577398    153198.09    155955.31 
  400000    1230.8009    6594892.5    6724.9433    48.731617    2.3577398    152994.31    155907.32 
  400100    1216.0535    6594466.8    6724.9433    48.731617    2.3577398     152988.8    155866.91 
Loop time of 416.307 on 1 procs for 400000 steps with 795 atoms

Performance: 20.754 ns/day, 1.156 hours/ns, 960.829 timesteps/s
99.8% CPU use with 1 MPI tasks x no OpenMP threads

MPI task timing breakdown:
Section |  min time  |  avg time  |  max time  |%varavg| %total
---------------------------------------------------------------
Pair    | 361.76     | 361.76     | 361.76     |   0.0 | 86.90
Neigh   | 24.705     | 24.705     | 24.705     |   0.0 |  5.93
Comm    | 17.099     | 17.099     | 17.099     |   0.0 |  4.11
Output  | 1.4884     | 1.4884     | 1.4884     |   0.0 |  0.36
Modify  | 7.6776     | 7.6776     | 7.6776     |   0.0 |  1.84
Other   |            | 3.576      |            |       |  0.86

Nlocal:            795 ave         795 max         795 min
Histogram: 1 0 0 0 0 0 0 0 0 0
Nghost:           6171 ave        6171 max        6171 min
Histogram: 1 0 0 0 0 0 0 0 0 0
Neighs:          53342 ave       53342 max       53342 min
Histogram: 1 0 0 0 0 0 0 0 0 0

Total # of neighbors = 53342
Ave neighs/atom = 67.096855
Neighbor list builds = 12767
Dangerous builds = 37

write_data graphene_single_layer_LJ_795C_after_temp_1200K_nv.data ### MODIFY FILE NAME ###
System init for write_data ...
  generated 0 of 0 mixed pair_coeff terms from geometric mixing rule
Total wall time: 0:06:56
