# System definition
read_data graphene_single_layer_x-45_y_45_795_C_nv.data  ### MODIFY FILE NAME ###
Reading data file ...
  orthogonal box = (-1.4464652 -1.4423034 -1.42) to (47.285152 47.149102 1.42)
  1 by 1 by 1 MPI processor grid
  reading atoms ...
  795 atoms
  reading velocities ...
  795 velocities
  read_data CPU = 0.033 seconds
pair_style lj/cut 6
pair_coeff      1 1 0.066047 3.4

# Virtual force wall to keep the cylinder shape
#region myCylinder cylinder z 0. 0. 20.3 -22.079997 505.920003 units box
#fix wall all wall/region myCylinder lj93 1.0 1.0 2.5

# Minimization
timestep 0.25
thermo 100
thermo_style custom step temp press vol lx density pe etotal
dump 2 all custom 1000 graphene_single_layer_LJ_795C_after_temp_1100K_nv.lammpstrj id type x y z ### MODIFY FILE NAME ###
min_style cg
minimize 1.0e-6 1.0e-6 100 1000
WARNING: Using 'neigh_modify every 1 delay 0 check yes' setting during minimization (../min.cpp:187)
  generated 0 of 0 mixed pair_coeff terms from geometric mixing rule
Neighbor list info ...
  update every 1 steps, delay 0 steps, check yes
  max neighbors/atom: 10000, page size: 100000
  master list distance cutoff = 6.4
  ghost atom cutoff = 6.4
  binsize = 3.2, bins = 16 16 1
  1 neighbor lists, perpetual/occasional/extra = 1 0 0
  (1) pair lj/cut, perpetual
      attributes: half, newton on
      pair build: half/bin/atomonly/newton
      stencil: half/bin/3d
      bin: standard
Per MPI rank memory allocation (min/avg/max) = 5.847 | 5.847 | 5.847 Mbytes
Step Temp Press Volume Lx Density PotEng TotEng 
       0          923 3.5764745e+08    6724.9433    48.731617    2.3577398    8739313.6    8741498.1 
     100          923     47792497    6724.9433    48.731617    2.3577398    1156645.3    1158829.8 
Loop time of 0.224168 on 1 procs for 100 steps with 795 atoms

100.0% CPU use with 1 MPI tasks x no OpenMP threads

Minimization stats:
  Stopping criterion = max iterations
  Energy initial, next-to-last, final = 
       8739313.5743934   1166159.30364263   1156645.25969717
  Force two-norm initial, final = 757147.49 41890.076
  Force max component initial, final = 127132.22 10243.229
  Final line search alpha, max atom move = 3.9224736e-06 0.040178794
  Iterations, force evaluations = 100 123

MPI task timing breakdown:
Section |  min time  |  avg time  |  max time  |%varavg| %total
---------------------------------------------------------------
Pair    | 0.15401    | 0.15401    | 0.15401    |   0.0 | 68.71
Neigh   | 0.059291   | 0.059291   | 0.059291   |   0.0 | 26.45
Comm    | 0.0064797  | 0.0064797  | 0.0064797  |   0.0 |  2.89
Output  | 8.64e-05   | 8.64e-05   | 8.64e-05   |   0.0 |  0.04
Modify  | 0          | 0          | 0          |   0.0 |  0.00
Other   |            | 0.004296   |            |       |  1.92

Nlocal:            795 ave         795 max         795 min
Histogram: 1 0 0 0 0 0 0 0 0 0
Nghost:           5526 ave        5526 max        5526 min
Histogram: 1 0 0 0 0 0 0 0 0 0
Neighs:          50620 ave       50620 max       50620 min
Histogram: 1 0 0 0 0 0 0 0 0 0

Total # of neighbors = 50620
Ave neighs/atom = 63.672956
Neighbor list builds = 37
Dangerous builds = 0
#timestep 0.25
fix 1 all nvt temp 1100.0 1100.0 $(100.0*dt) ### MODIFY INITIAL TEMP, FINAL TEMP ###
fix 1 all nvt temp 1100.0 1100.0 25 
run 400000
  generated 0 of 0 mixed pair_coeff terms from geometric mixing rule
Per MPI rank memory allocation (min/avg/max) = 4.725 | 4.725 | 4.725 Mbytes
Step Temp Press Volume Lx Density PotEng TotEng 
     100          923     47792497    6724.9433    48.731617    2.3577398    1156645.3    1158829.8 
     200    23826.215     11146125    6724.9433    48.731617    2.3577398    254728.05    311119.06 
     300    6022.5697    8441166.1    6724.9433    48.731617    2.3577398    195936.94    210190.93 
     400    2837.2084    7780086.8    6724.9433    48.731617    2.3577398    181114.97    187829.97 
     500    1807.3715    7508598.8    6724.9433    48.731617    2.3577398    174924.29    179201.91 
     600    1414.4135    7342496.5    6724.9433    48.731617    2.3577398    171046.19    174393.77 
     700    1321.2638    7200639.4    6724.9433    48.731617    2.3577398       167641    170768.11 
     800    1036.6267    7125053.7    6724.9433    48.731617    2.3577398    165917.31    168370.76 
     900    1060.2337    7066572.7    6724.9433    48.731617    2.3577398    164493.04    167002.36 
    1000    1114.8534    7020129.4    6724.9433    48.731617    2.3577398    163345.89    165984.48 
    1100    1036.5984    6993143.4    6724.9433    48.731617    2.3577398    162720.25    165173.64 
    1200    912.99817    6988118.6    6724.9433    48.731617    2.3577398    162647.59    164808.44 
    1300    997.65634    6995778.2    6724.9433    48.731617    2.3577398    162797.49     165158.7 
    1400    1200.2365      7012024    6724.9433    48.731617    2.3577398    163116.04    165956.72 
    1500    1313.0327    7015569.2    6724.9433    48.731617    2.3577398    163157.13    166264.76 
    1600     1251.047    6989557.1    6724.9433    48.731617    2.3577398    162550.47     165511.4 
    1700    1077.0229    6951516.8    6724.9433    48.731617    2.3577398    161694.23    164243.28 
    1800    896.68756    6935028.1    6724.9433    48.731617    2.3577398    161364.37    163486.62 
    1900    1029.8787    6926128.9    6724.9433    48.731617    2.3577398    161099.26    163536.74 
    2000    1244.4354    6926315.9    6724.9433    48.731617    2.3577398    161017.99    163963.27 
    2100    1245.2136    6915438.6    6724.9433    48.731617    2.3577398    160756.02    163703.14 
    2200    1211.9755    6878634.6    6724.9433    48.731617    2.3577398     159874.8    162743.26 
    2300    1040.9104      6844701    6724.9433    48.731617    2.3577398    159120.27    161583.86 
    2400    921.01619    6823043.2    6724.9433    48.731617    2.3577398    158640.87    160820.69 
    2500    1065.0315    6807258.1    6724.9433    48.731617    2.3577398       158205    160725.68 
    2600     1185.244    6804560.7    6724.9433    48.731617    2.3577398    158090.96    160896.15 
    2700    1239.5997    6791275.5    6724.9433    48.731617    2.3577398    157748.29    160682.13 
    2800    1177.0902    6768661.4    6724.9433    48.731617    2.3577398    157227.39    160013.29 
    2900    1011.5492    6747474.5    6724.9433    48.731617    2.3577398    156776.08    159170.18 
    3000     1066.735    6723085.6    6724.9433    48.731617    2.3577398     156164.1    158688.81 
    3100    992.48824    6721821.7    6724.9433    48.731617    2.3577398    156160.14    158509.12 
    3200      1133.37    6718824.4    6724.9433    48.731617    2.3577398    156031.99    158714.41 
    3300    1273.8053    6714697.3    6724.9433    48.731617    2.3577398     155876.6    158891.39 
    3400    1135.5313    6704359.1    6724.9433    48.731617    2.3577398    155682.23    158369.77 
    3500    1109.7295    6670520.6    6724.9433    48.731617    2.3577398    154870.52    157496.99 
    3600    941.38755    6654160.7    6724.9433    48.731617    2.3577398    154536.75    156764.79 
    3700    940.09831    6651301.1    6724.9433    48.731617    2.3577398    154471.13    156696.12 
    3800    1071.8164    6665311.9    6724.9433    48.731617    2.3577398    154759.94    157296.67 
    3900    1304.9236    6672325.3    6724.9433    48.731617    2.3577398    154838.53    157926.98 
    4000    1180.6241    6672881.4    6724.9433    48.731617    2.3577398    154899.53    157693.79 
    4100    1063.3619    6654815.9    6724.9433    48.731617    2.3577398    154507.95    157024.68 
    4200    988.67398    6641124.1    6724.9433    48.731617    2.3577398    154204.68    156544.64 
    4300    1030.3686    6637579.2    6724.9433    48.731617    2.3577398    154102.83    156541.47 
    4400    1082.3453    6646583.8    6724.9433    48.731617    2.3577398    154301.31    156862.96 
    4500    1166.7436    6655708.2    6724.9433    48.731617    2.3577398     154489.3     157250.7 
    4600    1145.8058    6662707.4    6724.9433    48.731617    2.3577398    154670.37    157382.22 
    4700    1151.1404      6653804    6724.9433    48.731617    2.3577398    154450.77    157175.25 
    4800    1027.3806    6652820.4    6724.9433    48.731617    2.3577398    154476.29    156907.86 
    4900       1070.1    6644218.5    6724.9433    48.731617    2.3577398    154250.44    156783.11 
    5000    1119.5403    6641008.9    6724.9433    48.731617    2.3577398    154151.16    156800.85 
    5100    1116.9553    6645978.9    6724.9433    48.731617    2.3577398    154272.99    156916.56 
    5200    1109.3251    6650292.4    6724.9433    48.731617    2.3577398    154380.91    157006.42 
    5300    1130.1183    6653055.8    6724.9433    48.731617    2.3577398    154440.24    157114.97 
    5400    1110.6875    6655444.2    6724.9433    48.731617    2.3577398    154504.33    157133.07 
    5500    1108.2357      6652857    6724.9433    48.731617    2.3577398    154444.57     157067.5 
    5600    1088.7767    6648513.4    6724.9433    48.731617    2.3577398    154346.24    156923.12 
    5700    1101.0595    6643143.4    6724.9433    48.731617    2.3577398    154209.78    156815.73 
    5800    1052.7313    6646446.8    6724.9433    48.731617    2.3577398    154310.39    156801.95 
    5900    1095.3068    6648123.9    6724.9433    48.731617    2.3577398    154335.76    156928.09 
    6000    1118.2295    6655081.2    6724.9433    48.731617    2.3577398     154494.7    157141.28 
    6100    1133.3967    6659118.4    6724.9433    48.731617    2.3577398    154587.32     157269.8 
    6200    1155.3682    6651045.9    6724.9433    48.731617    2.3577398    154382.79    157117.28 
    6300     1032.147    6649741.4    6724.9433    48.731617    2.3577398    154398.11    156840.96 
    6400    1064.7474    6641573.2    6724.9433    48.731617    2.3577398    154186.99    156706.99 
    6500    1016.4686    6647591.8    6724.9433    48.731617    2.3577398    154351.61    156757.35 
    6600    1094.8128    6653276.2    6724.9433    48.731617    2.3577398    154457.73     157048.9 
    6700    1189.0408    6654808.6    6724.9433    48.731617    2.3577398    154458.86    157273.04 
    6800    1106.1727    6659244.5    6724.9433    48.731617    2.3577398    154598.44    157216.49 
    6900    1131.6945    6646705.6    6724.9433    48.731617    2.3577398    154286.13    156964.58 
    7000     1009.033    6646080.3    6724.9433    48.731617    2.3577398    154319.41    156707.55 
    7100    1056.3948    6643003.1    6724.9433    48.731617    2.3577398    154225.06     156725.3 
    7200    1131.5129    6646840.2    6724.9433    48.731617    2.3577398    154289.02    156967.04 
    7300    1164.3276    6654666.2    6724.9433    48.731617    2.3577398    154467.65    157223.34 
    7400    1130.7299    6658931.3    6724.9433    48.731617    2.3577398    154582.86    157259.03 
    7500    1142.5987    6649802.2    6724.9433    48.731617    2.3577398     154354.9    157059.16 
    7600    1024.9207    6648578.8    6724.9433    48.731617    2.3577398    154373.53    156799.27 
    7700    1092.7267    6640291.7    6724.9433    48.731617    2.3577398     154145.8    156732.02 
    7800    1098.4846    6645540.9    6724.9433    48.731617    2.3577398    154269.28    156869.13 
    7900    1139.5886    6652012.4    6724.9433    48.731617    2.3577398    154412.38    157109.52 
    8000    1198.7431    6652375.3    6724.9433    48.731617    2.3577398     154397.7    157234.84 
    8100    1092.6658    6655811.6    6724.9433    48.731617    2.3577398    154520.72     157106.8 
    8200    1074.9647    6647779.5    6724.9433    48.731617    2.3577398    154334.64    156878.83 
    8300    1062.7215    6643979.5    6724.9433    48.731617    2.3577398    154247.03    156762.24 
    8400    1060.1925      6647175    6724.9433    48.731617    2.3577398    154324.98     156834.2 
    8500    1072.5368    6653594.9    6724.9433    48.731617    2.3577398    154475.21    157013.65 
    8600    1178.6468      6652132    6724.9433    48.731617    2.3577398    154400.91    157190.49 
    8700    1118.1816    6656230.1    6724.9433    48.731617    2.3577398    154522.97    157169.44 
    8800    1092.7336    6650881.8    6724.9433    48.731617    2.3577398     154402.3    156988.54 
    8900    1044.7598    6647432.3    6724.9433    48.731617    2.3577398    154338.29    156810.98 
    9000    1093.1774    6643278.9    6724.9433    48.731617    2.3577398    154216.57    156803.86 
    9100    1111.7466    6647785.1    6724.9433    48.731617    2.3577398    154318.25    156949.49 
    9200    1147.5157    6652778.9    6724.9433    48.731617    2.3577398    154427.01    157142.91 
    9300    1124.4698    6656575.7    6724.9433    48.731617    2.3577398    154529.45    157190.81 
    9400    1085.2517    6654838.4    6724.9433    48.731617    2.3577398    154502.05    157070.58 
    9500    1074.3844    6645740.3    6724.9433    48.731617    2.3577398    154285.41    156828.23 
    9600    1055.2134      6643039    6724.9433    48.731617    2.3577398    154227.54    156724.98 
    9700    1071.8424    6647509.9    6724.9433    48.731617    2.3577398    154329.19    156865.99 
    9800    1098.0714    6655765.3    6724.9433    48.731617    2.3577398    154519.21    157118.09 
    9900    1202.2184    6653488.3    6724.9433    48.731617    2.3577398    154423.31    157268.68 
   10000    1133.7857    6653029.5    6724.9433    48.731617    2.3577398    154438.99    157122.39 
   10100    1082.2599    6646981.7    6724.9433    48.731617    2.3577398    154311.22    156872.68 
   10200    1031.6046    6645635.3    6724.9433    48.731617    2.3577398    154298.26    156739.82 
   10300    1064.4345    6646295.3    6724.9433    48.731617    2.3577398    154301.75    156821.01 
   10400    1139.1993    6649694.8    6724.9433    48.731617    2.3577398    154355.87    157052.09 
   10500    1149.5143    6655498.6    6724.9433    48.731617    2.3577398    154492.74    157213.37 
   10600     1137.055    6654501.6    6724.9433    48.731617    2.3577398    154473.39    157164.53 
   10700    1077.1317    6649262.7    6724.9433    48.731617    2.3577398    154370.14    156919.45 
   10800    1043.4648    6645566.1    6724.9433    48.731617    2.3577398    154293.56    156763.19 
   10900    1075.8813    6646141.8    6724.9433    48.731617    2.3577398    154293.91    156840.26 
   11000     1128.491    6649116.5    6724.9433    48.731617    2.3577398    154345.43     157016.3 
   11100    1093.4421    6657101.3    6724.9433    48.731617    2.3577398    154553.79    157141.71 
   11200    1136.6738      6653477    6724.9433    48.731617    2.3577398     154447.9    157138.14 
   11300    1116.1078    6649715.4    6724.9433    48.731617    2.3577398    154365.08    157006.64 
   11400    1038.9338    6649368.1    6724.9433    48.731617    2.3577398     154385.5    156844.41 
   11500    1051.0449      6647624    6724.9433    48.731617    2.3577398    154338.81    156826.38 
   11600    1087.0373    6651090.5    6724.9433    48.731617    2.3577398    154409.64     156982.4 
   11700    1109.4613    6655305.2    6724.9433    48.731617    2.3577398    154503.92    157129.75 
   11800    1119.5513    6653690.5    6724.9433    48.731617    2.3577398    154460.75    157110.47 
   11900    1115.7856    6648926.6    6724.9433    48.731617    2.3577398    154345.67    156986.47 
   12000    1073.9914    6648025.5    6724.9433    48.731617    2.3577398    154339.95    156881.83 
   12100    1072.6703    6646817.7    6724.9433    48.731617    2.3577398    154311.52    156850.28 
   12200    1091.6986    6649338.8    6724.9433    48.731617    2.3577398    154365.36    156949.15 
   12300    1101.7153    6654204.2    6724.9433    48.731617    2.3577398    154479.33    157086.83 
   12400    1108.3042    6654768.8    6724.9433    48.731617    2.3577398    154491.57    157114.66 
   12500    1113.3842    6650368.9    6724.9433    48.731617    2.3577398    154382.06    157017.17 
   12600    1040.7343    6651004.3    6724.9433    48.731617    2.3577398    154424.99    156888.16 
   12700    1123.7829    6643777.2    6724.9433    48.731617    2.3577398    154217.45    156877.18 
   12800    1094.3371    6648841.9    6724.9433    48.731617    2.3577398    154352.48    156942.52 
   12900     1134.362    6649882.6    6724.9433    48.731617    2.3577398    154363.33    157048.09 
   13000    1117.3764    6652119.3    6724.9433    48.731617    2.3577398    154423.34    157067.91 
   13100    1099.0437    6651792.6    6724.9433    48.731617    2.3577398    154422.99    157024.17 
   13200    1078.7486    6651055.3    6724.9433    48.731617    2.3577398    154410.68    156963.83 
   13300    1107.4882    6646833.9    6724.9433    48.731617    2.3577398     154298.3    156919.47 
   13400    1109.6079      6647643    6724.9433    48.731617    2.3577398    154317.13    156943.31 
   13500    1114.2735    6649301.2    6724.9433    48.731617    2.3577398    154354.53    156991.75 
   13600     1118.208    6649953.3    6724.9433    48.731617    2.3577398    154369.71    157016.25 
   13700    1091.0423    6651264.9    6724.9433    48.731617    2.3577398    154411.67     156993.9 
   13800    1054.7667    6654123.9    6724.9433    48.731617    2.3577398    154495.93    156992.31 
   13900    1090.6516    6651421.6    6724.9433    48.731617    2.3577398     154415.8    156997.12 
   14000    1091.5878    6650516.2    6724.9433    48.731617    2.3577398       154395    156978.53 
   14100    1078.4032    6650918.9    6724.9433    48.731617    2.3577398    154408.85    156961.17 
   14200    1057.6215    6653108.8    6724.9433    48.731617    2.3577398     154471.4    156974.54 
   14300    1129.0624    6648371.3    6724.9433    48.731617    2.3577398     154328.6    157000.82 
   14400     1126.411    6649307.3    6724.9433    48.731617    2.3577398    154352.17    157018.12 
   14500    1121.4178    6649611.2    6724.9433    48.731617    2.3577398    154361.03    157015.16 
   14600    1051.2679    6653729.9    6724.9433    48.731617    2.3577398    154486.66    156974.76 
   14700    1078.2664    6650131.2    6724.9433    48.731617    2.3577398    154390.64    156942.64 
   14800    1105.7801    6647602.3    6724.9433    48.731617    2.3577398    154318.79    156935.91 
   14900    1066.4242    6652524.5    6724.9433    48.731617    2.3577398    154451.55    156975.52 
   15000    1094.3732    6652288.9    6724.9433    48.731617    2.3577398    154436.87    157026.99 
   15100    1149.2728    6648598.9    6724.9433    48.731617    2.3577398    154325.95    157046.01 
   15200    1101.2019    6651024.1    6724.9433    48.731617    2.3577398    154403.02     157009.3 
   15300    1103.2562    6648618.6    6724.9433    48.731617    2.3577398    154342.37    156953.51 
   15400    1101.2072      6647215    6724.9433    48.731617    2.3577398    154311.68    156917.98 
   15500    1126.4538    6646161.1    6724.9433    48.731617    2.3577398    154275.06    156941.11 
   15600    1090.0681    6651507.8    6724.9433    48.731617    2.3577398    154417.16    156997.09 
   15700    1110.9849    6652302.1    6724.9433    48.731617    2.3577398    154430.94    157060.38 
   15800    1091.2467    6652887.3    6724.9433    48.731617    2.3577398    154449.46    157032.18 
   15900    1155.6791    6644616.2    6724.9433    48.731617    2.3577398    154225.63    156960.85 
   16000    1039.6272    6651871.1    6724.9433    48.731617    2.3577398    154446.18    156906.73 
   16100    1091.8506    6648590.1    6724.9433    48.731617    2.3577398    154347.91    156932.07 
   16200    1140.8154    6647561.6    6724.9433    48.731617    2.3577398    154303.89    157003.93 
   16300     1093.782    6653094.3    6724.9433    48.731617    2.3577398    154454.76    157043.49 
   16400     1125.177    6650319.5    6724.9433    48.731617    2.3577398    154375.05    157038.08 
   16500    1121.0715    6647791.8    6724.9433    48.731617    2.3577398    154315.92    156969.23 
   16600     1102.862    6646553.2    6724.9433    48.731617    2.3577398    154293.95    156904.16 
   16700    1057.5282    6651003.2    6724.9433    48.731617    2.3577398    154419.39     156922.3 
   16800    1098.2099    6651000.2    6724.9433    48.731617    2.3577398    154404.03    157003.24 
   16900    1187.9608    6647057.2    6724.9433    48.731617    2.3577398    154273.14    157084.76 
   17000    1107.6172    6652821.9    6724.9433    48.731617    2.3577398    154443.01    157064.47 
   17100    1072.1917    6651508.6    6724.9433    48.731617    2.3577398    154424.97     156962.6 
   17200    1121.9393    6644608.9    6724.9433    48.731617    2.3577398    154239.24     156894.6 
   17300    1072.4625    6648893.1    6724.9433    48.731617    2.3577398    154361.91    156900.17 
   17400     1094.725    6650730.3    6724.9433    48.731617    2.3577398    154397.82    156988.77 
   17500    1104.8214    6653163.2    6724.9433    48.731617    2.3577398    154453.75     157068.6 
   17600    1126.7229    6651126.6    6724.9433    48.731617    2.3577398    154396.93    157063.62 
   17700    1104.8099    6649789.1    6724.9433    48.731617    2.3577398    154371.35    156986.18 
   17800    1090.5418    6647951.2    6724.9433    48.731617    2.3577398    154332.15    156913.21 
   17900     1099.893      6647312    6724.9433    48.731617    2.3577398    154313.84    156917.03 
   18000    1075.2205    6652120.2    6724.9433    48.731617    2.3577398    154439.29    156984.08 
   18100    1113.9508    6651736.4    6724.9433    48.731617    2.3577398    154415.99    157052.45 
   18200    1099.1403    6652382.3    6724.9433    48.731617    2.3577398    154436.59    157037.99 
   18300    1089.0246    6650688.8    6724.9433    48.731617    2.3577398    154398.74     156976.2 
   18400    1094.6926      6647603    6724.9433    48.731617    2.3577398    154320.82     156911.7 
   18500    1069.1935    6650434.5    6724.9433    48.731617    2.3577398    154401.02    156931.55 
   18600    1066.1547    6653213.6    6724.9433    48.731617    2.3577398    154469.74    156993.08 
   18700    1097.3778    6652986.6    6724.9433    48.731617    2.3577398     154451.6    157048.84 
   18800    1166.2921    6647394.9    6724.9433    48.731617    2.3577398    154287.73    157048.06 
   18900    1055.0009    6652829.1    6724.9433    48.731617    2.3577398     154465.6    156962.54 
   19000    1110.4864    6645923.4    6724.9433    48.731617    2.3577398    154276.77    156905.03 
   19100    1096.2841    6648406.5    6724.9433    48.731617    2.3577398    154342.36       156937 
   19200    1107.5898    6650909.8    6724.9433    48.731617    2.3577398    154396.56    157017.97 
   19300    1081.3386    6655255.8    6724.9433    48.731617    2.3577398    154512.46    157071.73 
   19400    1109.5423    6651579.4    6724.9433    48.731617    2.3577398    154411.73    157037.75 
   19500    1038.4119      6653390    6724.9433    48.731617    2.3577398    154483.45    156941.12 
   19600    1065.9117    6648753.1    6724.9433    48.731617    2.3577398    154361.34     156884.1 
   19700    1090.0337    6648391.2    6724.9433    48.731617    2.3577398    154341.87    156921.72 
   19800    1061.1473    6654892.4    6724.9433    48.731617    2.3577398    154511.95    157023.44 
   19900    1149.8962    6650381.6    6724.9433    48.731617    2.3577398    154368.07     157089.6 
   20000    1115.4465    6650893.6    6724.9433    48.731617    2.3577398    154394.46    157034.46 
   20100    1069.5384      6649904    6724.9433    48.731617    2.3577398    154388.04    156919.38 
   20200    1071.9219    6647908.2    6724.9433    48.731617    2.3577398    154339.91    156876.89 
   20300    1095.7528    6648758.2    6724.9433    48.731617    2.3577398    154348.68    156942.07 
   20400    1112.9938    6651044.7    6724.9433    48.731617    2.3577398    154399.74    157033.93 
   20500    1116.6411    6653486.4    6724.9433    48.731617    2.3577398    154455.52    157098.34 
   20600     1079.082    6654198.2    6724.9433    48.731617    2.3577398    154487.92    157041.85 
   20700    1100.9626    6647746.2    6724.9433    48.731617    2.3577398     154322.9    156928.62 
   20800    1074.0661    6647085.7    6724.9433    48.731617    2.3577398    154317.06    156859.12 
   20900    1118.9076    6645632.1    6724.9433    48.731617    2.3577398    154264.49    156912.68 
   21000    1103.9931    6652074.8    6724.9433    48.731617    2.3577398    154427.91     157040.8 
   21100    1122.8624      6653058    6724.9433    48.731617    2.3577398     154442.8    157100.35 
   21200    1121.0411    6651186.5    6724.9433    48.731617    2.3577398    154399.21    157052.45 
   21300     1075.018    6650635.6    6724.9433    48.731617    2.3577398    154403.09     156947.4 
   21400     1081.904    6646682.9    6724.9433    48.731617    2.3577398    154304.68    156865.29 
   21500    1094.8913    6646720.7    6724.9433    48.731617    2.3577398    154300.68    156892.02 
   21600    1066.4264    6653654.1    6724.9433    48.731617    2.3577398    154479.81    157003.79 
   21700    1156.6123    6650178.8    6724.9433    48.731617    2.3577398    154361.46    157098.88 
   21800    1123.7037    6652752.7    6724.9433    48.731617    2.3577398    154435.67    157095.21 
   21900    1057.6382    6653085.7    6724.9433    48.731617    2.3577398    154470.33    156973.51 
   22000    1100.1078    6645930.4    6724.9433    48.731617    2.3577398    154278.77    156882.46 
   22100    1072.5791    6647601.8    6724.9433    48.731617    2.3577398    154329.39    156867.93 
   22200    1119.4338    6647091.8    6724.9433    48.731617    2.3577398    154300.47    156949.91 
   22300    1129.0889    6650673.5    6724.9433    48.731617    2.3577398    154384.01     157056.3 
   22400    1163.8385    6649853.1    6724.9433    48.731617    2.3577398    154349.13    157103.66 
   22500    1139.5337      6649228    6724.9433    48.731617    2.3577398    154344.31    157041.32 
   22600    1090.9569    6648667.3    6724.9433    48.731617    2.3577398    154349.48    156931.51 
   22700    1073.5426    6648493.2    6724.9433    48.731617    2.3577398    154351.91    156892.73 
   22800    1098.4252    6647785.5    6724.9433    48.731617    2.3577398    154327.27    156926.99 
   22900    1098.7997    6650895.9    6724.9433    48.731617    2.3577398    154400.56    157001.16 
   23000    1091.0556    6653820.9    6724.9433    48.731617    2.3577398    154474.67    157056.94 
   23100    1114.9782    6651963.5    6724.9433    48.731617    2.3577398     154420.1    157058.99 
   23200    1080.1277    6652565.4    6724.9433    48.731617    2.3577398    154448.88    157005.29 
   23300    1091.9864    6648814.9    6724.9433    48.731617    2.3577398     154353.6    156938.07 
   23400    1086.0437    6648497.6    6724.9433    48.731617    2.3577398    154346.55    156916.96 
   23500    1128.9453    6646397.7    6724.9433    48.731617    2.3577398    154279.77    156951.71 
   23600    1117.0574    6649472.5    6724.9433    48.731617    2.3577398    154358.83    157002.64 
   23700      1130.22    6649832.8    6724.9433    48.731617    2.3577398    154362.15    157037.11 
   23800    1096.3956    6652644.6    6724.9433    48.731617    2.3577398    154444.44    157039.35 
   23900    1100.9607    6650034.8    6724.9433    48.731617    2.3577398    154378.74    156984.45 
   24000    1097.9324    6648403.8    6724.9433    48.731617    2.3577398    154340.71    156939.25 
   24100    1125.7418    6645018.6    6724.9433    48.731617    2.3577398    154247.01    156911.37 
   24200    1086.4738    6649778.6    6724.9433    48.731617    2.3577398    154377.91    156949.34 
   24300    1103.0675      6651151    6724.9433    48.731617    2.3577398    154404.94    157015.64 
   24400    1103.9831      6652839    6724.9433    48.731617    2.3577398    154444.92    157057.78 
   24500    1130.7274    6650872.6    6724.9433    48.731617    2.3577398    154386.73     157062.9 
   24600    1090.3132    6650963.7    6724.9433    48.731617    2.3577398    154406.12    156986.63 
   24700     1092.853    6647243.6    6724.9433    48.731617    2.3577398    154314.46    156900.99 
   24800    1088.3654    6647063.9    6724.9433    48.731617    2.3577398    154310.93    156886.83 
   24900    1097.1129    6648926.8    6724.9433    48.731617    2.3577398    154353.31    156949.92 
   25000    1116.3772    6651094.4    6724.9433    48.731617    2.3577398    154399.85    157042.05 
   25100    1082.0466    6656347.7    6724.9433    48.731617    2.3577398    154539.61    157100.56 
   25200    1114.4148    6651980.8    6724.9433    48.731617    2.3577398    154420.59    157058.15 
   25300    1123.6517      6646447    6724.9433    48.731617    2.3577398    154283.18     156942.6 
   25400    1076.8431    6646223.9    6724.9433    48.731617    2.3577398    154295.45    156844.09 
   25500    1084.6308    6647081.2    6724.9433    48.731617    2.3577398    154312.72    156879.79 
   25600    1113.6854    6650116.9    6724.9433    48.731617    2.3577398    154376.68    157012.51 
   25700     1164.804    6650044.8    6724.9433    48.731617    2.3577398    154353.81    157110.62 
   25800    1098.5481    6655761.4    6724.9433    48.731617    2.3577398    154517.16    157117.17 
   25900    1087.4219    6651792.6    6724.9433    48.731617    2.3577398    154427.17    157000.84 
   26000    1055.9078    6647739.8    6724.9433    48.731617    2.3577398    154341.15    156840.24 
   26100    1079.0418    6644909.2    6724.9433    48.731617    2.3577398    154263.04    156816.88 
   26200    1089.7905    6649750.3    6724.9433    48.731617    2.3577398    154375.77    156955.05 
   26300    1086.8847    6657061.4    6724.9433    48.731617    2.3577398    154554.56    157126.96 
   26400    1158.4924    6652728.2    6724.9433    48.731617    2.3577398    154422.25    157164.13 
   26500     1134.285    6649630.4    6724.9433    48.731617    2.3577398    154355.96    157040.55 
   26600    1130.0433    6642560.1    6724.9433    48.731617    2.3577398    154186.49    156861.03 
   26700    1077.7832    6643441.7    6724.9433    48.731617    2.3577398    154227.92    156778.77 
   26800    1095.3134    6646079.7    6724.9433    48.731617    2.3577398    154285.56    156877.91 
   26900    1134.9566    6651568.3    6724.9433    48.731617    2.3577398    154403.05    157089.22 
   27000    1144.6553    6656211.8    6724.9433    48.731617    2.3577398    154512.91    157222.04 
   27100     1099.301    6655886.7    6724.9433    48.731617    2.3577398    154522.62     157124.4 
   27200    1053.5975    6650187.1    6724.9433    48.731617    2.3577398    154400.77    156894.38 
   27300    1052.1892    6644475.7    6724.9433    48.731617    2.3577398    154262.62     156752.9 
   27400    1042.7959    6647486.7    6724.9433    48.731617    2.3577398    154340.79    156808.84 
   27500     1156.826    6647650.6    6724.9433    48.731617    2.3577398    154299.21    157037.14 
   27600    1195.8489    6652265.9    6724.9433    48.731617    2.3577398       154396    157226.29 
   27700    1150.2774    6655033.2    6724.9433    48.731617    2.3577398    154480.64    157203.07 
   27800    1090.1295    6649763.1    6724.9433    48.731617    2.3577398    154376.43     156956.5 
   27900    1015.2391    6646631.4    6724.9433    48.731617    2.3577398    154329.81    156732.64 
   28000    1067.9802    6643585.3    6724.9433    48.731617    2.3577398    154235.47    156763.13 
   28100    1061.9654    6653031.4    6724.9433    48.731617    2.3577398    154468.39    156981.81 
   28200    1132.4517    6656268.4    6724.9433    48.731617    2.3577398    154516.95    157197.19 
   28300    1136.8365    6657487.8    6724.9433    48.731617    2.3577398    154545.85    157236.47 
   28400    1110.4341      6650608    6724.9433    48.731617    2.3577398    154389.48    157017.61 
   28500    1086.2604      6643450    6724.9433    48.731617    2.3577398    154224.88     156795.8 
   28600    1028.9443    6645775.8    6724.9433    48.731617    2.3577398    154302.69    156737.96 
   28700    1114.7687      6645539    6724.9433    48.731617    2.3577398    154264.49    156902.88 
   28800    1122.9674    6655138.6    6724.9433    48.731617    2.3577398    154493.43    157151.23 
   28900    1135.7151    6657176.5    6724.9433    48.731617    2.3577398    154538.29    157226.26 
   29000    1120.7021      6652432    6724.9433    48.731617    2.3577398    154429.45    157081.89 
   29100     1058.738    6648083.5    6724.9433    48.731617    2.3577398     154347.7    156853.49 
   29200    1021.6656    6646536.2    6724.9433    48.731617    2.3577398    154324.05    156742.09 
   29300    1029.6902    6650027.1    6724.9433    48.731617    2.3577398    154406.05    156843.09 
   29400     1077.067    6656076.3    6724.9433    48.731617    2.3577398     154534.1    157083.27 
   29500     1125.348    6658443.1    6724.9433    48.731617    2.3577398    154573.33    157236.76 
   29600    1160.0528    6652312.6    6724.9433    48.731617    2.3577398    154410.23     157155.8 
   29700     1053.241      6650188    6724.9433    48.731617    2.3577398    154402.05    156894.83 
   29800    1024.1749    6646287.6    6724.9433    48.731617    2.3577398    154317.66    156741.64 
   29900    1047.7612      6646690    6724.9433    48.731617    2.3577398    154318.61    156798.41 
   30000    1079.3932    6652788.2    6724.9433    48.731617    2.3577398    154453.55    157008.21 
   30100    1149.4841    6655106.2    6724.9433    48.731617    2.3577398    154481.78    157202.34 
   30200    1179.6957    6652910.8    6724.9433    48.731617    2.3577398    154417.85    157209.91 
   30300    1041.7016      6655029    6724.9433    48.731617    2.3577398    154524.49    156989.95 
   30400    1018.4627    6647748.8    6724.9433    48.731617    2.3577398    154355.41    156765.87 
   30500    1068.1649    6643356.8    6724.9433    48.731617    2.3577398    154229.83    156757.92 
   30600    1058.2293    6651668.2    6724.9433    48.731617    2.3577398    154436.01    156940.58 
   30700    1118.8616    6655797.4    6724.9433    48.731617    2.3577398    154512.06    157160.14 
   30800    1164.0158    6655011.7    6724.9433    48.731617    2.3577398    154475.82    157230.77 
   30900    1156.9218    6648619.6    6724.9433    48.731617    2.3577398    154322.58    157060.74 
   31000    1076.9355      6646034    6724.9433    48.731617    2.3577398    154291.16    156840.01 
   31100    1074.3043      6642516    6724.9433    48.731617    2.3577398    154206.19    156748.82 
   31200    1105.7174    6644829.7    6724.9433    48.731617    2.3577398    154250.58    156867.55 
   31300    1125.2847    6653108.4    6724.9433    48.731617    2.3577398    154443.08    157106.36 
   31400    1136.8746    6656687.3    6724.9433    48.731617    2.3577398    154527.64    157218.35 
   31500    1169.0315    6649978.7    6724.9433    48.731617    2.3577398    154350.49    157117.31 
   31600    1113.6203    6645311.8    6724.9433    48.731617    2.3577398    154259.05    156894.73 
   31700    1042.3132    6645180.8    6724.9433    48.731617    2.3577398    154283.07    156749.98 
   31800    1048.2722    6648091.6    6724.9433    48.731617    2.3577398    154351.53    156832.55 
   31900    1139.3549    6649730.9    6724.9433    48.731617    2.3577398    154356.84    157053.42 
   32000    1090.8807    6660514.7    6724.9433    48.731617    2.3577398    154637.39    157219.24 
   32100    1121.2313    6655909.4    6724.9433    48.731617    2.3577398    154513.47    157167.16 
   32200    1069.8046    6649998.9    6724.9433    48.731617    2.3577398    154391.74    156923.72 
   32300    1060.8323    6644417.7    6724.9433    48.731617    2.3577398    154258.42    156769.16 
   32400    1059.0302    6645203.7    6724.9433    48.731617    2.3577398       154277    156783.47 
   32500    1083.9786    6650971.5    6724.9433    48.731617    2.3577398    154407.15    156972.67 
   32600    1148.0071    6654937.9    6724.9433    48.731617    2.3577398    154480.65    157197.71 
   32700    1101.7111      6659095    6724.9433    48.731617    2.3577398       154599    157206.49 
   32800    1168.3568    6646174.3    6724.9433    48.731617    2.3577398    154258.73    157023.95 
   32900    1077.5252    6644001.1    6724.9433    48.731617    2.3577398    154242.28    156792.53 
   33000    1036.7709    6645211.8    6724.9433    48.731617    2.3577398    154287.84    156741.63 
   33100    1070.9866    6649520.2    6724.9433    48.731617    2.3577398    154378.92    156913.69 
   33200    1121.0246    6655420.1    6724.9433    48.731617    2.3577398    154502.59    157155.79 
   33300    1135.8984    6657586.1    6724.9433    48.731617    2.3577398    154547.65    157236.05 
   33400    1124.8951    6652008.4    6724.9433    48.731617    2.3577398    154417.47    157079.83 
   33500    1079.0552    6646349.2    6724.9433    48.731617    2.3577398     154297.4    156851.27 
   33600    1035.6686      6645053    6724.9433    48.731617    2.3577398    154283.51    156734.69 
   33700    1033.1422    6649601.9    6724.9433    48.731617    2.3577398    154394.93    156840.13 
   33800    1118.2233    6652270.1    6724.9433    48.731617    2.3577398    154427.08    157073.65 
   33900     1129.691      6657669    6724.9433    48.731617    2.3577398    154552.43    157226.14 
   34000    1111.1135    6656519.7    6724.9433    48.731617    2.3577398     154532.9    157162.65 
   34100    1088.4116    6648323.5    6724.9433    48.731617    2.3577398    154343.89    156919.91 
   34200    1015.4704    6647075.6    6724.9433    48.731617    2.3577398    154339.96    156743.34 
   34300    1094.1254    6642770.7    6724.9433    48.731617    2.3577398    154205.09    156794.62 
   34400     1060.293    6654367.2    6724.9433    48.731617    2.3577398    154499.41    157008.88 
   34500    1128.0594    6657095.2    6724.9433    48.731617    2.3577398    154540.64    157210.49 
   34600       1143.6    6655484.8    6724.9433    48.731617    2.3577398    154495.25    157201.88 
   34700     1111.028    6649276.1    6724.9433    48.731617    2.3577398    154356.01    156985.55 
   34800    1080.5207    6643592.7    6724.9433    48.731617    2.3577398    154229.23    156786.56 
   34900    1050.4681    6645056.9    6724.9433    48.731617    2.3577398    154277.78    156763.99 
   35000     1104.055    6647412.3    6724.9433    48.731617    2.3577398    154313.39    156926.43 
   35100    1136.2392    6654124.2    6724.9433    48.731617    2.3577398    154465.32    157154.53 
   35200    1117.3823    6658276.5    6724.9433    48.731617    2.3577398    154570.87    157215.45 
   35300    1115.5274    6652346.4    6724.9433    48.731617    2.3577398    154429.53    157069.72 
   35400    1111.9967    6643060.2    6724.9433    48.731617    2.3577398    154205.57     156837.4 
   35500    1062.4613    6643093.8    6724.9433    48.731617    2.3577398     154225.8    156740.39 
   35600    1094.3782    6646054.3    6724.9433    48.731617    2.3577398    154284.86       156875 
   35700    1118.3336    6653510.8    6724.9433    48.731617    2.3577398    154457.01    157103.84 
   35800    1125.2637    6657479.8    6724.9433    48.731617    2.3577398    154550.26     157213.5 
   35900    1101.4522    6655070.8    6724.9433    48.731617    2.3577398    154502.31    157109.18 
   36000    1059.1996    6649737.4    6724.9433    48.731617    2.3577398    154388.12       156895 
   36100    1070.4374    6644020.2    6724.9433    48.731617    2.3577398    154246.09    156779.57 
   36200    1143.7505    6640595.1    6724.9433    48.731617    2.3577398    154131.41    156838.39 
   36300     1065.176    6654763.4    6724.9433    48.731617    2.3577398    154507.26    157028.28 
   36400    1171.4387    6652870.8    6724.9433    48.731617    2.3577398    154419.27    157191.79 
   36500    1112.4041    6655926.7    6724.9433    48.731617    2.3577398    154517.32    157150.12 
   36600    1071.6182    6651101.6    6724.9433    48.731617    2.3577398    154415.75    156952.02 
   36700    1092.2956    6642864.5    6724.9433    48.731617    2.3577398    154208.25    156793.45 
   36800    1090.0384    6643540.3    6724.9433    48.731617    2.3577398    154226.46    156806.32 
   36900    1105.7057    6648952.7    6724.9433    48.731617    2.3577398    154351.13    156968.07 
   37000    1128.3882    6654685.3    6724.9433    48.731617    2.3577398    154481.58    157152.21 
   37100    1125.0934    6655821.9    6724.9433    48.731617    2.3577398    154509.64    157172.47 
   37200    1064.7508    6654646.4    6724.9433    48.731617    2.3577398    154504.57    157024.58 
   37300    1031.5458    6649340.1    6724.9433    48.731617    2.3577398    154389.09    156830.51 
   37400    1069.8696    6644091.4    6724.9433    48.731617    2.3577398    154246.71    156778.83 
   37500    1086.4589    6648283.4    6724.9433    48.731617    2.3577398    154341.93    156913.32 
   37600     1125.881    6653337.8    6724.9433    48.731617    2.3577398    154448.78    157113.48 
   37700      1100.74    6658485.8    6724.9433    48.731617    2.3577398    154583.56    157188.75 
   37800    1146.9122    6649889.3    6724.9433    48.731617    2.3577398    154357.81    157072.28 
   37900    1049.1853      6649381    6724.9433    48.731617    2.3577398    154384.18    156867.35 
   38000    1052.8041    6645588.1    6724.9433    48.731617    2.3577398    154288.51    156780.25 
   38100     1075.087    6647634.3    6724.9433    48.731617    2.3577398    154330.51    156874.98 
   38200    1090.5479    6654266.4    6724.9433    48.731617    2.3577398    154485.51    157066.57 
   38300    1156.3276    6653581.2    6724.9433    48.731617    2.3577398    154443.66    157180.41 
   38400    1144.6223    6651802.6    6724.9433    48.731617    2.3577398     154405.9    157114.95 
   38500    1041.1821    6652458.9    6724.9433    48.731617    2.3577398    154461.18    156925.42 
   38600    1060.3218    6645876.9    6724.9433    48.731617    2.3577398    154293.13    156802.66 
   38700     1103.194    6643664.4    6724.9433    48.731617    2.3577398    154222.95    156833.95 
   38800    1059.4101    6653689.5    6724.9433    48.731617    2.3577398    154484.48    156991.86 
   38900    1107.3698    6656362.2    6724.9433    48.731617    2.3577398    154529.22     157150.1 
   39000    1113.9254    6655370.8    6724.9433    48.731617    2.3577398    154502.74    157139.13 
   39100    1115.4879    6649834.8    6724.9433    48.731617    2.3577398    154368.34    157008.44 
   39200    1051.1296    6649029.9    6724.9433    48.731617    2.3577398    154374.85    156862.63 
   39300    1072.4063    6646033.9    6724.9433    48.731617    2.3577398    154292.25    156830.38 
   39400    1151.2874    6644247.2    6724.9433    48.731617    2.3577398    154218.22    156943.04 
   39500    1172.6802    6648123.8    6724.9433    48.731617    2.3577398    154305.21    157080.67 
   39600    1124.3235    6654116.2    6724.9433    48.731617    2.3577398    154467.45    157128.46 
   39700     1135.475    6649636.1    6724.9433    48.731617    2.3577398    154355.63    157043.03 
   39800    1099.3223    6647151.4    6724.9433    48.731617    2.3577398    154309.34    156911.17 
   39900    1069.5141    6646815.6    6724.9433    48.731617    2.3577398    154312.53    156843.81 
   40000    1065.0935    6649450.5    6724.9433    48.731617    2.3577398     154377.5    156898.32 
   40100    1106.3042    6651288.2    6724.9433    48.731617    2.3577398     154408.5    157026.86 
   40200    1118.2513    6654651.7    6724.9433    48.731617    2.3577398     154483.7    157130.34 
   40300     1094.633    6654869.1    6724.9433    48.731617    2.3577398    154498.05    157088.79 
   40400    1102.3634    6648633.7    6724.9433    48.731617    2.3577398     154344.4    156953.44 
   40500    1073.3588    6646913.6    6724.9433    48.731617    2.3577398     154312.6    156852.98 
   40600    1085.5859    6647120.8    6724.9433    48.731617    2.3577398    154313.98     156883.3 
   40700    1103.2429    6650318.2    6724.9433    48.731617    2.3577398    154384.96    156996.07 
   40800     1156.371    6650339.7    6724.9433    48.731617    2.3577398    154363.96    157100.81 
   40900    1128.9989    6651957.2    6724.9433    48.731617    2.3577398    154415.47    157087.54 
   41000     1111.496    6649097.7    6724.9433    48.731617    2.3577398    154352.68    156983.33 
   41100    1087.3357    6646670.1    6724.9433    48.731617    2.3577398    154302.38    156875.84 
   41200    1075.9252    6647583.3    6724.9433    48.731617    2.3577398       154329    156875.46 
   41300    1113.3287    6649008.3    6724.9433    48.731617    2.3577398    154348.76    156983.74 
   41400    1110.4151    6653294.9    6724.9433    48.731617    2.3577398    154453.42    157081.51 
   41500     1145.935    6650172.4    6724.9433    48.731617    2.3577398    154365.54    157077.69 
   41600    1094.1562      6650485    6724.9433    48.731617    2.3577398    154393.02    156982.63 
   41700    1070.1691    6648654.3    6724.9433    48.731617    2.3577398    154356.87    156889.71 
   41800    1095.1332    6647288.6    6724.9433    48.731617    2.3577398    154314.22    156906.14 
   41900    1121.2462    6648330.4    6724.9433    48.731617    2.3577398    154330.16    156983.88 
   42000    1106.5017    6652551.5    6724.9433    48.731617    2.3577398    154437.14    157055.96 
   42100     1154.926      6648857    6724.9433    48.731617    2.3577398    154329.09    157062.52 
   42200    1106.1596    6649812.7    6724.9433    48.731617    2.3577398    154371.33    156989.35 
   42300    1101.4614    6646793.4    6724.9433    48.731617    2.3577398    154299.66    156906.56 
   42400    1087.8935    6647470.5    6724.9433    48.731617    2.3577398    154322.46    156897.25 
   42500    1066.1473    6651569.2    6724.9433    48.731617    2.3577398    154430.43    156953.74 
   42600    1104.4753    6652464.9    6724.9433    48.731617    2.3577398    154437.79    157051.83 
   42700    1099.1013    6653892.8    6724.9433    48.731617    2.3577398     154472.6    157073.91 
   42800    1055.7857    6654583.1    6724.9433    48.731617    2.3577398    154506.78    157005.58 
   42900    1125.2246    6645990.1    6724.9433    48.731617    2.3577398    154270.91    156934.05 
   43000    1082.3996    6648607.6    6724.9433    48.731617    2.3577398    154352.63    156914.41 
   43100    1087.1586    6650123.3    6724.9433    48.731617    2.3577398     154386.7    156959.74 
   43200    1105.4408    6651044.1    6724.9433    48.731617    2.3577398    154400.74    157017.06 
   43300    1064.4069      6654853    6724.9433    48.731617    2.3577398    154509.56    157028.76 
   43400    1078.1892    6652583.5    6724.9433    48.731617    2.3577398    154450.13    157001.95 
   43500     1100.134    6650074.5    6724.9433    48.731617    2.3577398    154379.58    156983.34 
   43600    1061.9152      6652229    6724.9433    48.731617    2.3577398     154448.8     156962.1 
   43700    1110.4082    6648909.8    6724.9433    48.731617    2.3577398    154347.73    156975.81 
   43800    1096.5347    6650073.7    6724.9433    48.731617    2.3577398    154380.78    156976.02 
   43900    1062.5403    6652178.2    6724.9433    48.731617    2.3577398    154445.19    156959.97 
   44000    1106.6809    6648693.7    6724.9433    48.731617    2.3577398    154343.89    156963.14 
   44100    1070.8008    6652971.1    6724.9433    48.731617    2.3577398    154462.78    156997.11 
   44200    1066.4791    6655229.8    6724.9433    48.731617    2.3577398    154518.06    157042.16 
   44300    1116.2391    6650812.2    6724.9433    48.731617    2.3577398    154391.44    157033.31 
   44400    1114.3441    6648106.6    6724.9433    48.731617    2.3577398    154326.37    156963.76 
   44500    1046.1541    6650946.8    6724.9433    48.731617    2.3577398     154423.3     156899.3 
   44600    1122.0716    6644843.3    6724.9433    48.731617    2.3577398    154245.19    156900.87 
   44700    1113.4896    6648180.4    6724.9433    48.731617    2.3577398    154329.13    156964.49 
   44800    1138.4238      6649989    6724.9433    48.731617    2.3577398    154363.57    157057.95 
   44900    1105.7186    6654442.2    6724.9433    48.731617    2.3577398     154482.7    157099.68 
   45000    1141.6947    6648927.6    6724.9433    48.731617    2.3577398    154336.79    157038.92 
   45100    1081.7872    6648957.4    6724.9433    48.731617    2.3577398    154359.44    156919.78 
   45200    1093.8866    6644966.6    6724.9433    48.731617    2.3577398    154259.74    156848.71 
   45300    1086.5734    6647534.5    6724.9433    48.731617    2.3577398    154322.74     156894.4 
   45400     1092.808    6652236.8    6724.9433    48.731617    2.3577398    154434.88     157021.3 
   45500     1149.759    6651089.6    6724.9433    48.731617    2.3577398    154385.51    157106.71 
   45600    1160.6759    6649540.9    6724.9433    48.731617    2.3577398     154342.8    157089.85 
   45700    1122.6532    6648401.4    6724.9433    48.731617    2.3577398    154330.36    156987.41 
   45800    1051.0534    6650093.5    6724.9433    48.731617    2.3577398    154399.95    156887.55 
   45900    1091.5283    6646339.8    6724.9433    48.731617    2.3577398     154294.6    156877.99 
   46000    1060.3344    6651632.1    6724.9433    48.731617    2.3577398    154433.81    156943.37 
   46100    1104.7019    6652270.7    6724.9433    48.731617    2.3577398    154430.81    157045.38 
   46200     1159.471      6649840    6724.9433    48.731617    2.3577398     154351.4    157095.59 
   46300    1105.4238    6651852.2    6724.9433    48.731617    2.3577398    154421.07    157037.34 
   46400    1082.8442    6649418.4    6724.9433    48.731617    2.3577398    154371.27    156934.11 
   46500    1068.1858    6648562.6    6724.9433    48.731617    2.3577398    154355.84    156883.98 
   46600    1081.1147    6649406.9    6724.9433    48.731617    2.3577398    154369.57    156928.32 
   46700    1100.8217    6651313.2    6724.9433    48.731617    2.3577398    154410.42    157015.81 
   46800    1128.2595    6651112.2    6724.9433    48.731617    2.3577398     154394.8    157065.12 
   46900    1131.9865    6649401.1    6724.9433    48.731617    2.3577398    154350.37    157029.51 
   47000    1104.8375    6648642.4    6724.9433    48.731617    2.3577398    154341.32    156956.21 
   47100    1076.1893    6648329.4    6724.9433    48.731617    2.3577398    154347.81    156894.89 
   47200    1080.9807    6649265.4    6724.9433    48.731617    2.3577398    154367.68    156926.11 
   47300    1119.8907    6650175.7    6724.9433    48.731617    2.3577398    154375.52    157026.03 
   47400    1099.2472    6653933.8    6724.9433    48.731617    2.3577398    154473.05    157074.71 
   47500    1106.1097    6651708.8    6724.9433    48.731617    2.3577398    154417.38    157035.28 
   47600    1096.4468    6648744.6    6724.9433    48.731617    2.3577398    154348.28    156943.31 
   47700    1070.9942    6648374.9    6724.9433    48.731617    2.3577398       154351    156885.79 
   47800    1095.1748    6648062.9    6724.9433    48.731617    2.3577398    154333.76    156925.78 
   47900    1107.9905    6651172.4    6724.9433    48.731617    2.3577398    154402.96    157025.32 
   48000    1098.8079    6654736.4    6724.9433    48.731617    2.3577398    154494.23    157094.84 
   48100    1116.3105    6651656.4    6724.9433    48.731617    2.3577398     154412.6    157054.65 
   48200    1116.1249    6647166.3    6724.9433    48.731617    2.3577398    154303.18    156944.78 
   48300    1040.3609    6649818.2    6724.9433    48.731617    2.3577398    154396.27    156858.55 
   48400    1057.5061    6650054.9    6724.9433    48.731617    2.3577398    154396.38    156899.25 
   48500      1152.13    6647369.1    6724.9433    48.731617    2.3577398    154293.44    157020.26 
   48600    1114.7942    6653887.5    6724.9433    48.731617    2.3577398    154468.11    157106.56 
   48700     1141.084    6650761.7    6724.9433    48.731617    2.3577398    154381.15    157081.83 
   48800    1078.8435    6650735.1    6724.9433    48.731617    2.3577398    154403.22    156956.58 
   48900    1086.5507    6645625.1    6724.9433    48.731617    2.3577398    154277.47    156849.07 
   49000    1089.9538    6645867.4    6724.9433    48.731617    2.3577398    154282.65    156862.31 
   49100    1116.9697    6649392.8    6724.9433    48.731617    2.3577398    154356.54    157000.14 
   49200    1095.6483      6656161    6724.9433    48.731617    2.3577398    154529.09    157122.23 
   49300    1083.4319    6656107.9    6724.9433    48.731617    2.3577398    154533.39    157097.62 
   49400    1143.8247    6646757.6    6724.9433    48.731617    2.3577398    154281.98    156989.14 
   49500     1072.134    6647334.4    6724.9433    48.731617    2.3577398    154325.69    156863.18 
   49600    1055.5915    6648330.3    6724.9433    48.731617    2.3577398    154354.97    156853.31 
   49700    1071.1671    6651525.8    6724.9433    48.731617    2.3577398    154426.42    156961.62 
   49800    1106.5228    6654542.7    6724.9433    48.731617    2.3577398    154485.69    157104.57 
   49900    1126.1681    6653848.2    6724.9433    48.731617    2.3577398    154462.39    157127.76 
   50000    1117.4949      6649774    6724.9433    48.731617    2.3577398     154366.8    157011.64 
   50100    1099.4097    6645291.4    6724.9433    48.731617    2.3577398    154264.39    156866.44 
   50200    1068.2519    6646988.4    6724.9433    48.731617    2.3577398    154317.87    156846.17 
   50300    1097.0975    6648831.3    6724.9433    48.731617    2.3577398       154351    156947.57 
   50400    1116.5846      6652912    6724.9433    48.731617    2.3577398    154442.42    157085.11 
   50500     1085.892    6657425.2    6724.9433    48.731617    2.3577398    154564.22    157134.27 
   50600    1115.4938    6650989.6    6724.9433    48.731617    2.3577398    154397.21    157037.32 
   50700    1108.1834    6645434.6    6724.9433    48.731617    2.3577398    154263.79     156886.6 
   50800    1020.8807    6650559.7    6724.9433    48.731617    2.3577398    154424.34    156840.53 
   50900    1107.4533    6646943.2    6724.9433    48.731617    2.3577398    154302.47    156923.55 
   51000    1127.1623    6651204.5    6724.9433    48.731617    2.3577398    154396.76    157064.49 
   51100    1124.0282    6653852.5    6724.9433    48.731617    2.3577398    154461.41    157121.72 
   51200    1080.2247    6654645.3    6724.9433    48.731617    2.3577398    154498.75    157055.39 
   51300    1073.4807    6649874.1    6724.9433    48.731617    2.3577398    154387.05    156927.73 
   51400    1053.7771    6648457.2    6724.9433    48.731617    2.3577398     154359.4    156853.44 
   51500    1097.5433    6646609.2    6724.9433    48.731617    2.3577398    154298.41    156896.03 
   51600    1100.8491    6651566.6    6724.9433    48.731617    2.3577398    154415.81    157021.26 
   51700    1134.4215    6652750.5    6724.9433    48.731617    2.3577398    154432.48    157117.39 
   51800    1114.1503    6652923.2    6724.9433    48.731617    2.3577398    154445.05    157081.98 
   51900    1121.6784    6646971.3    6724.9433    48.731617    2.3577398    154296.33    156951.08 
   52000    1054.5107    6648736.1    6724.9433    48.731617    2.3577398    154362.65    156858.43 
   52100    1091.3771    6646455.9    6724.9433    48.731617    2.3577398     154295.8    156878.83 
   52200    1134.1608    6647907.7    6724.9433    48.731617    2.3577398    154314.48    156998.77 
   52300    1126.3943    6652828.6    6724.9433    48.731617    2.3577398    154436.96    157102.87 
   52400    1114.5036      6653410    6724.9433    48.731617    2.3577398    154454.89    157092.65 
   52500    1115.4485    6649356.8    6724.9433    48.731617    2.3577398     154356.4    156996.41 
   52600    1074.0763    6647564.7    6724.9433    48.731617    2.3577398    154330.16    156872.24 
   52700    1054.6403    6648956.5    6724.9433    48.731617    2.3577398    154371.81     156867.9 
   52800    1089.2896      6650276    6724.9433    48.731617    2.3577398     154389.2    156967.29 
   52900    1121.3505    6651980.9    6724.9433    48.731617    2.3577398     154418.9    157072.87 
   53000    1118.6963    6653347.4    6724.9433    48.731617    2.3577398    154452.93    157100.62 
   53100    1119.5985    6649931.8    6724.9433    48.731617    2.3577398    154368.03    157017.85 
   53200    1065.1958    6649496.9    6724.9433    48.731617    2.3577398    154381.11    156902.17 
   53300    1062.8093    6647992.3    6724.9433    48.731617    2.3577398    154345.05    156860.47 
   53400    1085.2353    6649527.9    6724.9433    48.731617    2.3577398    154371.47    156939.97 
   53500    1088.5768    6654137.1    6724.9433    48.731617    2.3577398    154483.55    157059.95 
   53600    1119.0904    6653255.8    6724.9433    48.731617    2.3577398    154450.69    157099.31 
   53700    1131.8447    6649435.3    6724.9433    48.731617    2.3577398    154352.42    157031.22 
   53800    1104.5583    6647268.8    6724.9433    48.731617    2.3577398    154310.26    156924.49 
   53900    1098.2827    6645559.2    6724.9433    48.731617    2.3577398    154271.08    156870.45 
   54000    1058.3626    6650894.9    6724.9433    48.731617    2.3577398    154415.32    156920.21 
   54100    1113.0532    6651254.6    6724.9433    48.731617    2.3577398    154404.02    157038.35 
   54200     1133.693    6651993.7    6724.9433    48.731617    2.3577398    154415.65    157098.83 
   54300    1115.9678    6651295.2    6724.9433    48.731617    2.3577398    154405.04    157046.27 
   54400    1084.2177    6649762.2    6724.9433    48.731617    2.3577398    154378.06    156944.14 
   54500    1077.8189    6648040.9    6724.9433    48.731617    2.3577398    154338.98    156889.92 
   54600     1070.182    6649270.3    6724.9433    48.731617    2.3577398    154373.44    156906.31 
   54700    1150.3401    6646570.9    6724.9433    48.731617    2.3577398    154275.23    156997.81 
   54800    1134.4293    6651379.9    6724.9433    48.731617    2.3577398    154398.09    157083.01 
   54900    1085.8448    6654752.1    6724.9433    48.731617    2.3577398    154498.89    157068.83 
   55000    1128.3063    6647339.3    6724.9433    48.731617    2.3577398    154303.37     156973.8 
   55100    1080.9525    6648039.5    6724.9433    48.731617    2.3577398    154339.31    156897.67 
   55200    1114.1506    6646078.9    6724.9433    48.731617    2.3577398     154278.2    156915.13 
   55300    1126.1469    6648222.9    6724.9433    48.731617    2.3577398    154324.21    156989.53 
   55400    1154.5548    6648693.5    6724.9433    48.731617    2.3577398     154326.7    157059.25 
   55500    1111.2466    6652012.9    6724.9433    48.731617    2.3577398    154422.57    157052.63 
   55600    1116.9475    6649160.3    6724.9433    48.731617    2.3577398    154351.61    156995.16 
   55700    1103.4438    6647463.9    6724.9433    48.731617    2.3577398    154315.01     156926.6 
   55800    1102.2901    6646864.7    6724.9433    48.731617    2.3577398    154301.49    156910.35 
   55900    1094.2195    6650135.2    6724.9433    48.731617    2.3577398    154384.28    156974.03 
   56000    1135.6548    6649348.1    6724.9433    48.731617    2.3577398     154349.4    157037.22 
   56100    1093.3511    6652852.1    6724.9433    48.731617    2.3577398    154450.21    157037.91 
   56200      1092.29    6651031.8    6724.9433    48.731617    2.3577398    154405.43    156990.63 
   56300    1081.2677    6650304.1    6724.9433    48.731617    2.3577398    154391.87    156950.97 
   56400    1088.1519      6649233    6724.9433    48.731617    2.3577398    154365.19    156940.59 
   56500    1071.0538    6651510.7    6724.9433    48.731617    2.3577398    154427.51    156962.44 
   56600    1118.0133    6650032.4    6724.9433    48.731617    2.3577398    154372.09    157018.16 
   56700    1110.0555    6651623.8    6724.9433    48.731617    2.3577398    154412.56     157039.8 
   56800    1062.7634    6653692.3    6724.9433    48.731617    2.3577398    154482.52    156997.83 
   56900    1123.0079    6646698.7    6724.9433    48.731617    2.3577398    154289.47    156947.37 
   57000    1088.1507    6649511.4    6724.9433    48.731617    2.3577398    154372.11    156947.51 
   57100    1056.8204    6653052.4    6724.9433    48.731617    2.3577398     154469.6    156970.84 
   57200    1093.6067    6651263.7    6724.9433    48.731617    2.3577398    154411.91    157000.22 
   57300     1127.084      6649264    6724.9433    48.731617    2.3577398     154351.2    157018.74 
   57400    1077.1167    6652555.5    6724.9433    48.731617    2.3577398    154449.14    156998.42 
   57500    1104.3876    6648612.2    6724.9433    48.731617    2.3577398    154342.11    156955.93 
   57600    1100.1878    6648631.3    6724.9433    48.731617    2.3577398    154345.04    156948.92 
   57700     1109.252    6649100.3    6724.9433    48.731617    2.3577398    154351.69    156977.02 
   57800    1119.9842    6649852.3    6724.9433    48.731617    2.3577398    154367.52    157018.26 
   57900    1109.9369    6650650.3    6724.9433    48.731617    2.3577398    154390.94     157017.9 
   58000    1115.5719    6649580.9    6724.9433    48.731617    2.3577398    154361.41    157001.71 
   58100    1106.8647    6648301.3    6724.9433    48.731617    2.3577398    154334.08    156953.77 
   58200    1081.8944    6649600.2    6724.9433    48.731617    2.3577398    154375.56    156936.15 
   58300    1141.1485    6646383.8    6724.9433    48.731617    2.3577398    154274.23    156975.05 
   58400    1110.7368    6651220.3    6724.9433    48.731617    2.3577398    154404.53    157033.38 
   58500    1107.2972    6651794.9    6724.9433    48.731617    2.3577398    154419.31    157040.02 
   58600    1060.4396    6652742.4    6724.9433    48.731617    2.3577398    154460.64    156970.45 
   58700    1061.6042    6650869.6    6724.9433    48.731617    2.3577398     154414.7    156927.27 
   58800     1116.509    6646846.5    6724.9433    48.731617    2.3577398    154296.35    156938.86 
   58900    1106.5395      6649885    6724.9433    48.731617    2.3577398    154373.57    156992.48 
   59000    1141.6248    6649244.4    6724.9433    48.731617    2.3577398    154344.04       157046 
   59100     1099.458    6652429.9    6724.9433    48.731617    2.3577398    154438.57    157040.72 
   59200    1135.3877    6647336.9    6724.9433    48.731617    2.3577398    154300.01    156987.21 
   59300    1084.0086    6648412.3    6724.9433    48.731617    2.3577398    154346.93    156912.52 
   59400    1057.8158    6650251.4    6724.9433    48.731617    2.3577398    154401.51    156905.11 
   59500     1079.251    6652136.7    6724.9433    48.731617    2.3577398    154439.11    156993.44 
   59600     1141.009    6650508.8    6724.9433    48.731617    2.3577398    154374.64    157075.13 
   59700    1123.5835    6651294.9    6724.9433    48.731617    2.3577398    154399.74       157059 
   59800    1129.6397    6646795.1    6724.9433    48.731617    2.3577398    154289.43    156963.02 
   59900    1106.6333    6645697.6    6724.9433    48.731617    2.3577398    154271.61    156890.75 
   60000    1086.6021    6647898.1    6724.9433    48.731617    2.3577398    154332.06    156903.79 
   60100    1120.3588    6648731.3    6724.9433    48.731617    2.3577398    154339.49    156991.12 
   60200    1126.8259    6651208.8    6724.9433    48.731617    2.3577398    154397.37     157064.3 
   60300    1122.2299    6652307.6    6724.9433    48.731617    2.3577398     154425.5    157081.55 
   60400    1118.6323      6648990    6724.9433    48.731617    2.3577398    154345.36     156992.9 
   60500    1093.3831    6647352.3    6724.9433    48.731617    2.3577398    154317.33     156905.1 
   60600    1058.0506    6649404.8    6724.9433    48.731617    2.3577398    154380.74    156884.89 
   60700    1094.4925    6649649.9    6724.9433    48.731617    2.3577398    154371.43    156961.83 
   60800    1151.8944    6649261.7    6724.9433    48.731617    2.3577398    154339.55    157065.81 
   60900    1135.6903    6651640.6    6724.9433    48.731617    2.3577398    154405.15    157093.06 
   61000    1104.3446    6650753.4    6724.9433    48.731617    2.3577398    154394.75    157008.48 
   61100    1076.5376    6649004.9    6724.9433    48.731617    2.3577398     154363.2    156911.11 
   61200    1074.5034    6647918.4    6724.9433    48.731617    2.3577398    154338.39    156881.49 
   61300    1095.3201    6648944.2    6724.9433    48.731617    2.3577398    154354.73     156947.1 
   61400    1111.1276    6651870.8    6724.9433    48.731617    2.3577398     154419.7    157049.48 
   61500    1175.8722      6648242    6724.9433    48.731617    2.3577398    154306.54    157089.55 
   61600    1119.6156    6649855.4    6724.9433    48.731617    2.3577398    154369.08    157018.95 
   61700     1049.978    6651729.5    6724.9433    48.731617    2.3577398    154439.27    156924.32 
   61800    1107.6672    6646014.9    6724.9433    48.731617    2.3577398    154278.93    156900.51 
   61900    1120.2343    6643132.7    6724.9433    48.731617    2.3577398       154206    156857.33 
   62000    1102.3625    6639498.3    6724.9433    48.731617    2.3577398    154124.62    156733.65 
   62100    1042.5888    6641197.7    6724.9433    48.731617    2.3577398    154187.47    156655.03 
   62200    1067.2083    6641057.9    6724.9433    48.731617    2.3577398     154175.9    156701.73 
   62300    1109.0608    6642422.9    6724.9433    48.731617    2.3577398    154191.46    156816.34 
   62400    1084.0319    6648668.7    6724.9433    48.731617    2.3577398    154352.16     156917.8 
   62500    1146.6753    6643349.7    6724.9433    48.731617    2.3577398    154200.75    156914.66 
   62600    1095.6754    6643828.3    6724.9433    48.731617    2.3577398    154230.91    156824.12 
   62700    1090.2345    6639654.3    6724.9433    48.731617    2.3577398    154130.89    156711.22 
   62800    1080.0305    6638042.2    6724.9433    48.731617    2.3577398    154097.57    156653.75 
   62900    1083.8447    6640468.2    6724.9433    48.731617    2.3577398    154156.14    156721.34 
   63000    1118.3103    6643284.4    6724.9433    48.731617    2.3577398    154209.97    156856.75 
   63100    1125.3176    6646332.5    6724.9433    48.731617    2.3577398    154280.29    156943.66 
   63200    1117.6797    6645360.1    6724.9433    48.731617    2.3577398    154259.83    156905.11 
   63300    1089.9482    6641777.3    6724.9433    48.731617    2.3577398    154183.88    156763.53 
   63400    1066.6616    6638939.5    6724.9433    48.731617    2.3577398    154124.71    156649.24 
   63500    1056.0484    6640469.5    6724.9433    48.731617    2.3577398    154164.92    156664.33 
   63600    1099.0669    6641978.5    6724.9433    48.731617    2.3577398    154185.49    156786.72 
   63700    1114.6967    6646449.2    6724.9433    48.731617    2.3577398    154287.06    156925.29 
   63800     1126.644    6646543.7    6724.9433    48.731617    2.3577398    154283.55    156950.05 
   63900    1117.5551    6642206.2    6724.9433    48.731617    2.3577398    154183.34    156828.33 
   64000    1111.2833    6636939.6    6724.9433    48.731617    2.3577398    154058.48    156688.63 
   64100    1072.1899      6637875    6724.9433    48.731617    2.3577398    154095.21    156632.83 
   64200     1091.426      6639770    6724.9433    48.731617    2.3577398    154134.82    156717.97 
   64300     1116.517    6644314.5    6724.9433    48.731617    2.3577398    154235.73    156878.26 
   64400    1120.8121    6647756.3    6724.9433    48.731617    2.3577398    154316.92    156969.61 
   64500    1120.6467    6645156.8    6724.9433    48.731617    2.3577398    154252.81    156905.12 
   64600    1106.9803    6638564.5    6724.9433    48.731617    2.3577398    154098.28    156718.24 
   64700    1065.1928    6637685.3    6724.9433    48.731617    2.3577398    154093.73    156614.79 
   64800    1070.4441    6639738.9    6724.9433    48.731617    2.3577398    154141.37    156674.85 
   64900    1108.3962    6643275.6    6724.9433    48.731617    2.3577398    154213.25    156836.56 
   65000    1108.9869    6648335.3    6724.9433    48.731617    2.3577398    154334.68    156959.39 
   65100    1150.9747    6644369.6    6724.9433    48.731617    2.3577398    154222.72     156946.8 
   65200    1097.2354      6642311    6724.9433    48.731617    2.3577398    154194.04    156790.94 
   65300    1052.4272    6639547.1    6724.9433    48.731617    2.3577398    154144.17    156635.01 
   65400    1059.3357    6638429.1    6724.9433    48.731617    2.3577398     154114.9     156622.1 
   65500    1100.1464    6641100.8    6724.9433    48.731617    2.3577398    154163.24    156767.02 
   65600    1103.8139    6647848.1    6724.9433    48.731617    2.3577398    154326.62    156939.09 
   65700    1100.2494    6649441.4    6724.9433    48.731617    2.3577398    154365.85    156969.88 
   65800    1120.6581    6643197.1    6724.9433    48.731617    2.3577398    154206.28    156858.61 
   65900    1073.7691    6639636.1    6724.9433    48.731617    2.3577398    154137.28    156678.63 
   66000    1101.7413      6634142    6724.9433    48.731617    2.3577398    153994.25    156601.81 
   66100    1056.0502    6642019.2    6724.9433    48.731617    2.3577398    154202.76    156702.18 
   66200    1104.1252    6645851.8    6724.9433    48.731617    2.3577398    154276.57    156889.78 
   66300    1179.1818    6644054.3    6724.9433    48.731617    2.3577398     154204.1    156994.94 
   66400    1148.6206    6642939.3    6724.9433    48.731617    2.3577398    154188.46    156906.97 
   66500    1123.1093    6637593.3    6724.9433    48.731617    2.3577398    154068.41    156726.54 
   66600    1046.3401      6638746    6724.9433    48.731617    2.3577398    154126.83    156603.27 
   66700    1072.6949    6638157.4    6724.9433    48.731617    2.3577398    154103.05    156641.87 
   66800    1081.3013    6645268.3    6724.9433    48.731617    2.3577398    154271.76    156830.94 
   66900    1126.1855    6647978.2    6724.9433    48.731617    2.3577398    154319.32    156984.74 
   67000    1148.9588    6645112.9    6724.9433    48.731617    2.3577398    154240.69       156960 
   67100       1074.2    6644139.6    6724.9433    48.731617    2.3577398    154245.99    156788.36 
   67200     1049.376    6639461.9    6724.9433    48.731617    2.3577398    154142.59    156626.21 
   67300    1062.4038      6637630    6724.9433    48.731617    2.3577398    154091.77    156606.22 
   67400    1071.8205    6642897.8    6724.9433    48.731617    2.3577398     154217.5    156754.25 
   67500    1141.3168    6645134.5    6724.9433    48.731617    2.3577398    154245.13    156946.35 
   67600    1122.8764    6648504.5    6724.9433    48.731617    2.3577398    154333.76    156991.35 
   67700    1113.8015    6643979.2    6724.9433    48.731617    2.3577398    154227.31    156863.41 
   67800    1052.7417      6641203    6724.9433    48.731617    2.3577398    154185.64    156677.23 
   67900    1080.4503    6635567.6    6724.9433    48.731617    2.3577398    154036.06    156593.23 
   68000    1102.3226    6637833.3    6724.9433    48.731617    2.3577398    154083.41    156692.34 
   68100    1140.0712    6643032.4    6724.9433    48.731617    2.3577398     154193.9    156892.18 
   68200     1158.042    6646094.5    6724.9433    48.731617    2.3577398    154261.66    157002.47 
   68300    1147.3928    6643440.5    6724.9433    48.731617    2.3577398    154200.93    156916.54 
   68400    1083.8529    6640406.4    6724.9433    48.731617    2.3577398    154153.55    156718.77 
   68500    1084.6509    6635716.3    6724.9433    48.731617    2.3577398    154039.33    156606.44 
   68600    1020.9359    6642628.4    6724.9433    48.731617    2.3577398    154230.52    156646.83 
   68700    1129.5104      6641327    6724.9433    48.731617    2.3577398    154156.59    156829.88 
   68800    1180.9403    6643380.2    6724.9433    48.731617    2.3577398    154187.86    156982.86 
   68900    1136.8865    6645842.7    6724.9433    48.731617    2.3577398    154264.56     156955.3 
   69000    1121.7504    6639869.9    6724.9433    48.731617    2.3577398    154124.75    156779.67 
   69100     1018.487      6641667    6724.9433    48.731617    2.3577398    154209.36    156619.88 
   69200    1078.6978    6637174.5    6724.9433    48.731617    2.3577398    154077.26    156630.28 
   69300    1127.0365    6639687.5    6724.9433    48.731617    2.3577398    154117.58    156785.01 
   69400    1142.6936      6644871    6724.9433    48.731617    2.3577398    154238.76    156943.25 
   69500     1127.409    6646918.2    6724.9433    48.731617    2.3577398    154294.03    156962.34 
   69600    1093.1633    6644170.6    6724.9433    48.731617    2.3577398    154239.65    156826.91 
   69700    1078.2614    6638462.2    6724.9433    48.731617    2.3577398    154106.96    156658.95 
   69800    1064.2562    6637618.3    6724.9433    48.731617    2.3577398    154092.68    156611.52 
   69900    1098.0716    6639822.7    6724.9433    48.731617    2.3577398    154133.37    156732.25 
   70000     1100.256      6647150    6724.9433    48.731617    2.3577398    154310.24    156914.29 
   70100    1139.2095    6646616.6    6724.9433    48.731617    2.3577398     154280.9    156977.14 
   70200    1100.6827    6645300.1    6724.9433    48.731617    2.3577398    154263.61    156868.67 
   70300    1122.7901    6636386.1    6724.9433    48.731617    2.3577398    154039.91    156697.29 
   70400    1065.7045    6637871.3    6724.9433    48.731617    2.3577398     154099.2    156621.47 
   70500    1043.9468    6642476.4    6724.9433    48.731617    2.3577398    154219.59    156690.37 
   70600    1110.7668    6644375.9    6724.9433    48.731617    2.3577398    154240.17    156869.09 
   70700    1158.9185    6645216.6    6724.9433    48.731617    2.3577398    154240.23    156983.11 
   70800    1174.7616    6641116.2    6724.9433    48.731617    2.3577398    154134.15    156914.53 
   70900    1114.1282    6638005.3    6724.9433    48.731617    2.3577398    154082.36    156719.24 
   71000    1041.3085    6639579.8    6724.9433    48.731617    2.3577398    154148.35    156612.88 
   71100    1070.8353    6639474.9    6724.9433    48.731617    2.3577398    154135.16    156669.57 
   71200    1104.0831    6643633.4    6724.9433    48.731617    2.3577398    154223.79     156836.9 
   71300    1131.4194    6647346.9    6724.9433    48.731617    2.3577398    154303.18    156980.98 
   71400    1133.3871    6646289.3    6724.9433    48.731617    2.3577398    154274.86    156957.32 
   71500    1108.4277    6641057.4    6724.9433    48.731617    2.3577398     154159.3    156782.68 
   71600     1053.466    6638392.8    6724.9433    48.731617    2.3577398    154115.88    156609.19 
   71700    1048.2431    6638676.8    6724.9433    48.731617    2.3577398    154124.79    156605.74 
   71800    1058.9761    6645038.8    6724.9433    48.731617    2.3577398    154275.23    156781.58 
   71900    1116.8421    6647838.4    6724.9433    48.731617    2.3577398     154320.7       156964 
   72000    1163.9401    6644936.7    6724.9433    48.731617    2.3577398    154232.43     156987.2 
   72100    1078.7508      6645231    6724.9433    48.731617    2.3577398    154272.94    156826.09 
   72200    1061.6475      6639302    6724.9433    48.731617    2.3577398    154134.16    156646.83 
   72300     1066.383    6637632.8    6724.9433    48.731617    2.3577398    154091.79    156615.67 
   72400    1115.3052    6639210.5    6724.9433    48.731617    2.3577398    154110.59    156750.25 
   72500    1085.4881    6648379.4    6724.9433    48.731617    2.3577398    154345.68    156914.77 
   72600    1195.0069    6641667.1    6724.9433    48.731617    2.3577398    154138.77    156967.07 
   72700    1102.4007    6644706.5    6724.9433    48.731617    2.3577398    154250.34    156859.47 
   72800     1072.137    6640763.1    6724.9433    48.731617    2.3577398    154165.56    156703.05 
   72900     1035.851    6640695.8    6724.9433    48.731617    2.3577398    154178.22    156629.84 
   73000    1057.2737    6641991.8    6724.9433    48.731617    2.3577398    154201.57    156703.88 
   73100    1147.5889    6641113.7    6724.9433    48.731617    2.3577398    154145.03     156861.1 
   73200    1114.9338    6647735.5    6724.9433    48.731617    2.3577398    154319.02    156957.81 
   73300    1121.5354    6645060.2    6724.9433    48.731617    2.3577398     154250.8    156905.21 
   73400    1094.0472    6640534.8    6724.9433    48.731617    2.3577398    154150.96    156740.31 
   73500    1023.1753    6641795.6    6724.9433    48.731617    2.3577398    154211.13    156632.74 
   73600     1076.024    6639777.1    6724.9433    48.731617    2.3577398       154142    156688.69 
   73700    1092.2615      6644630    6724.9433    48.731617    2.3577398    154250.98     156836.1 
   73800    1171.1619    6642197.8    6724.9433    48.731617    2.3577398    154162.45    156934.32 
   73900    1103.8478    6646611.4    6724.9433    48.731617    2.3577398    154296.13    156908.68 
   74000    1094.4365    6642287.5    6724.9433    48.731617    2.3577398     154192.4    156782.67 
   74100    1068.0517    6639794.7    6724.9433    48.731617    2.3577398    154143.26    156671.09 
   74200    1029.9753    6643309.5    6724.9433    48.731617    2.3577398     154244.8     156682.5 
   74300    1131.3592    6640425.5    6724.9433    48.731617    2.3577398    154134.98    156812.64 
   74400    1116.9834    6645708.3    6724.9433    48.731617    2.3577398    154268.14    156911.78 
   74500    1136.0885    6644099.9    6724.9433    48.731617    2.3577398    154221.59    156910.44 
   74600    1089.3172    6642757.2    6724.9433    48.731617    2.3577398    154208.96    156787.12 
   74700    1060.7179    6640527.6    6724.9433    48.731617    2.3577398    154165.31    156675.78 
   74800    1099.2646    6637283.1    6724.9433    48.731617    2.3577398    154070.58    156672.28 
   74900    1086.7922    6643052.9    6724.9433    48.731617    2.3577398    154215.86    156788.04 
   75000    1104.5135    6646736.5    6724.9433    48.731617    2.3577398    154298.37    156912.49 
   75100    1157.5777    6643235.2    6724.9433    48.731617    2.3577398    154193.17    156932.89 
   75200     1096.767    6642699.1    6724.9433    48.731617    2.3577398    154203.53    156799.32 
   75300     1070.608    6639415.8    6724.9433    48.731617    2.3577398     154134.6    156668.48 
   75400    1084.5448    6638110.2    6724.9433    48.731617    2.3577398    154096.39    156663.25 
   75500    1097.0719    6641495.8    6724.9433    48.731617    2.3577398    154172.77    156769.28 
   75600    1089.0348    6647975.3    6724.9433    48.731617    2.3577398       154335    156912.48 
   75700    1148.6004      6644919    6724.9433    48.731617    2.3577398    154236.65    156955.12 
[...]
  381700    1120.9868    6641174.2    6724.9433    48.731617    2.3577398    154155.97    156809.08 
  381800    1121.9096    6643237.2    6724.9433    48.731617    2.3577398    154205.77    156861.07 
  381900    1089.7161    6649493.8    6724.9433    48.731617    2.3577398    154372.79    156951.89 
  382000    1140.4926    6647767.2    6724.9433    48.731617    2.3577398    154310.13    157009.41 
  382100    1167.4832    6639760.5    6724.9433    48.731617    2.3577398    154103.79    156866.95 
  382200    1093.2137      6640614    6724.9433    48.731617    2.3577398    154153.89    156741.27 
  382300    1125.6673    6636461.2    6724.9433    48.731617    2.3577398    154040.09    156704.28 
  382400     1098.777    6640534.6    6724.9433    48.731617    2.3577398     154150.3    156750.85 
  382500    1114.1191    6647331.6    6724.9433    48.731617    2.3577398    154309.99    156946.85 
  382600    1132.0695    6646014.5    6724.9433    48.731617    2.3577398     154270.1    156949.44 
  382700    1119.6385    6643326.4    6724.9433    48.731617    2.3577398    154208.77    156858.69 
  382800    1094.6729    6642064.6    6724.9433    48.731617    2.3577398       154190    156780.84 
  382900    1107.8279    6639358.9    6724.9433    48.731617    2.3577398    154118.27    156740.23 
  383000    1079.9537    6642325.3    6724.9433    48.731617    2.3577398    154201.39    156757.39 
  383100    1167.2758    6641705.9    6724.9433    48.731617    2.3577398    154151.22    156913.88 
  383200    1102.3523    6652746.8    6724.9433    48.731617    2.3577398    154445.19     157054.2 
  383300    1158.6583    6643527.9    6724.9433    48.731617    2.3577398    154198.76    156941.03 
  383400    1113.4998    6641322.5    6724.9433    48.731617    2.3577398    154163.54    156798.93 
  383500    1081.2388    6642018.8    6724.9433    48.731617    2.3577398    154192.61    156751.65 
  383600    1085.8092      6641608    6724.9433    48.731617    2.3577398    154180.75     156750.6 
  383700    1147.6924    6640430.7    6724.9433    48.731617    2.3577398    154129.11    156845.42 
  383800    1154.7592    6646047.8    6724.9433    48.731617    2.3577398    154261.41    156994.45 
  383900    1116.7856    6648305.2    6724.9433    48.731617    2.3577398    154330.51    156973.68 
  384000    1079.2382    6642855.4    6724.9433    48.731617    2.3577398    154213.72    156768.02 
  384100    1069.5547    6642153.9    6724.9433    48.731617    2.3577398    154202.41     156733.8 
  384200    1096.9864    6640856.1    6724.9433    48.731617    2.3577398    154159.33    156755.64 
  384300    1127.5707    6642387.1    6724.9433    48.731617    2.3577398    154183.99    156852.68 
  384400    1165.0346    6643243.6    6724.9433    48.731617    2.3577398    154188.93    156946.29 
  384500    1174.1834    6642717.9    6724.9433    48.731617    2.3577398    154174.68     156953.7 
  384600     1083.532    6642843.1    6724.9433    48.731617    2.3577398    154212.95    156777.41 
  384700    1085.5495    6638594.9    6724.9433    48.731617    2.3577398    154108.67    156677.91 
  384800    1108.5379    6638351.1    6724.9433    48.731617    2.3577398    154092.36       156716 
  384900    1107.5339      6644268    6724.9433    48.731617    2.3577398     154237.8    156859.07 
  385000    1161.6509    6643039.3    6724.9433    48.731617    2.3577398    154186.72    156936.08 
  385100    1092.1404    6646172.1    6724.9433    48.731617    2.3577398    154289.32    156874.16 
  385200    1077.2882    6644193.8    6724.9433    48.731617    2.3577398    154248.24    156797.93 
  385300    1115.6509    6641114.1    6724.9433    48.731617    2.3577398    154156.78    156797.26 
  385400    1083.8605      6643208    6724.9433    48.731617    2.3577398    154219.96     156785.2 
  385500    1103.4834    6641399.4    6724.9433    48.731617    2.3577398    154169.71    156781.39 
  385600    1105.6254    6640909.1    6724.9433    48.731617    2.3577398    154155.85    156772.61 
  385700    1114.8668    6640288.3    6724.9433    48.731617    2.3577398    154138.46    156777.08 
  385800    1079.9747    6644817.2    6724.9433    48.731617    2.3577398    154261.27    156817.31 
  385900    1091.9922    6646405.6    6724.9433    48.731617    2.3577398    154295.82    156880.31 
  386000    1136.2291      6644044    6724.9433    48.731617    2.3577398    154222.22     156911.4 
  386100    1117.7289    6641330.7    6724.9433    48.731617    2.3577398    154163.35    156808.75 
  386200    1082.1164    6638169.7    6724.9433    48.731617    2.3577398    154098.99     156660.1 
  386300    1021.4782    6643431.9    6724.9433    48.731617    2.3577398    154250.42    156668.02 
  386400    1081.1294    6643868.7    6724.9433    48.731617    2.3577398     154237.4    156796.17 
  386500    1145.2672    6640920.5    6724.9433    48.731617    2.3577398     154141.6    156852.17 
  386600    1127.2942    6641741.9    6724.9433    48.731617    2.3577398    154168.65    156836.69 
  386700    1087.0815    6642902.2    6724.9433    48.731617    2.3577398    154211.64     156784.5 
  386800    1088.2322    6639446.7    6724.9433    48.731617    2.3577398    154127.36    156702.95 
  386900    1067.6591    6636186.9    6724.9433    48.731617    2.3577398    154057.37    156584.27 
  387000    1055.5062    6637037.8    6724.9433    48.731617    2.3577398    154083.12    156581.26 
  387100    1110.1829      6641333    6724.9433    48.731617    2.3577398    154164.79    156792.33 
  387200    1164.6441      6640113    6724.9433    48.731617    2.3577398    154113.83    156870.27 
  387300    1089.2607    6645583.9    6724.9433    48.731617    2.3577398    154276.04    156854.06 
  387400    1100.3391    6640610.4    6724.9433    48.731617    2.3577398    154150.39    156754.64 
  387500    1096.3546    6635097.9    6724.9433    48.731617    2.3577398    154020.02    156614.84 
  387600    1060.8138    6639030.6    6724.9433    48.731617    2.3577398    154128.04    156638.73 
  387700    1114.9597    6644394.6    6724.9433    48.731617    2.3577398    154236.64    156875.49 
  387800    1145.9141    6642314.9    6724.9433    48.731617    2.3577398    154175.92    156888.03 
  387900    1135.3571    6639702.3    6724.9433    48.731617    2.3577398    154116.86    156803.98 
  388000    1089.1785    6639860.1    6724.9433    48.731617    2.3577398    154137.57    156715.39 
  388100     1072.842      6638965    6724.9433    48.731617    2.3577398    154121.33    156660.49 
  388200    1129.2716    6638734.1    6724.9433    48.731617    2.3577398    154095.32    156768.04 
  388300    1162.0218    6643003.4    6724.9433    48.731617    2.3577398    154184.22    156934.45 
  388400    1196.6442    6639440.3    6724.9433    48.731617    2.3577398    154085.31    156917.48 
  388500    1139.7067    6639098.1    6724.9433    48.731617    2.3577398    154100.55    156797.96 
  388600    1125.6196    6636408.3    6724.9433    48.731617    2.3577398    154039.42     156703.5 
  388700    1116.2577    6637948.9    6724.9433    48.731617    2.3577398    154080.08    156721.99 
  388800    1095.3961    6641642.5    6724.9433    48.731617    2.3577398    154178.28    156770.82 
  388900     1099.878    6643666.8    6724.9433    48.731617    2.3577398    154225.87    156829.02 
  389000    1098.5174    6647011.2    6724.9433    48.731617    2.3577398    154306.85    156906.78 
  389100    1152.7286    6646900.6    6724.9433    48.731617    2.3577398    154283.03    157011.26 
  389200    1140.5473      6646333    6724.9433    48.731617    2.3577398    154274.96    156974.37 
  389300    1108.2818    6641357.6    6724.9433    48.731617    2.3577398    154167.34    156790.39 
  389400     1050.948    6643073.7    6724.9433    48.731617    2.3577398    154231.26     156718.6 
  389500    1085.5271    6640926.8    6724.9433    48.731617    2.3577398    154164.59    156733.77 
  389600    1147.2763    6641144.1    6724.9433    48.731617    2.3577398    154147.06     156862.4 
  389700    1176.1576    6644392.3    6724.9433    48.731617    2.3577398    154213.36    156997.04 
  389800    1109.0087    6647226.6    6724.9433    48.731617    2.3577398    154307.29    156932.05 
  389900    1067.5468    6647290.6    6724.9433    48.731617    2.3577398    154325.77    156852.41 
  390000    1097.3534    6643046.5    6724.9433    48.731617    2.3577398     154212.4    156809.58 
  390100    1110.2664    6639654.4    6724.9433    48.731617    2.3577398    154123.79    156751.53 
  390200    1061.1809    6640530.6    6724.9433    48.731617    2.3577398    154164.89    156676.46 
  390300     1066.854    6640134.6    6724.9433    48.731617    2.3577398    154153.93    156678.92 
  390400    1079.6615    6646290.1    6724.9433    48.731617    2.3577398    154296.89    156852.19 
  390500    1110.5074    6646697.2    6724.9433    48.731617    2.3577398    154294.78    156923.09 
  390600    1111.2025    6643927.6    6724.9433    48.731617    2.3577398    154229.04    156858.99 
  390700    1098.3079    6638640.6    6724.9433    48.731617    2.3577398    154104.55    156703.98 
  390800    1082.9742      6638434    6724.9433    48.731617    2.3577398    154104.96     156668.1 
  390900    1045.8346    6643238.6    6724.9433    48.731617    2.3577398    154237.03    156712.27 
  391000    1103.5207    6641904.4    6724.9433    48.731617    2.3577398    154181.27    156793.04 
  391100    1140.2784    6641290.4    6724.9433    48.731617    2.3577398    154151.87    156850.64 
  391200    1140.1954    6642936.8    6724.9433    48.731617    2.3577398    154193.15    156891.73 
  391300    1126.3712    6642750.1    6724.9433    48.731617    2.3577398    154191.58    156857.44 
  391400    1055.3471    6643004.5    6724.9433    48.731617    2.3577398    154226.85     156724.6 
  391500    1035.2175    6641557.1    6724.9433    48.731617    2.3577398     154200.1    156650.22 
  391600    1049.7291    6642776.2    6724.9433    48.731617    2.3577398    154224.25    156708.71 
  391700      1107.52    6645816.4    6724.9433    48.731617    2.3577398    154274.77       156896 
  391800     1082.844    6648396.5    6724.9433    48.731617    2.3577398    154347.31    156910.15 
  391900    1110.0402      6642907    6724.9433    48.731617    2.3577398    154202.17    156829.37 
  392000    1046.1954    6643988.8    6724.9433    48.731617    2.3577398    154256.02    156732.12 
  392100     1106.465    6639078.8    6724.9433    48.731617    2.3577398    154112.17    156730.91 
  392200    1094.2165    6641501.1    6724.9433    48.731617    2.3577398    154174.04    156763.79 
  392300    1107.8007    6640943.2    6724.9433    48.731617    2.3577398    154156.58    156778.48 
  392400    1095.6478    6643004.9    6724.9433    48.731617    2.3577398    154212.47    156805.61 
  392500    1074.8536    6646249.2    6724.9433    48.731617    2.3577398    154299.17     156843.1 
  392600    1081.1328    6647986.3    6724.9433    48.731617    2.3577398    154337.96    156896.75 
  392700    1095.7368      6646506    6724.9433    48.731617    2.3577398    154296.45     156889.8 
  392800     1120.804    6639668.8    6724.9433    48.731617    2.3577398    154120.29    156772.97 
  392900    1081.7374    6638553.3    6724.9433    48.731617    2.3577398    154108.22    156668.44 
  393000    1059.1648      6640997    6724.9433    48.731617    2.3577398    154176.81     156683.6 
  393100      1126.86    6644207.5    6724.9433    48.731617    2.3577398    154228.96    156895.97 
  393200    1081.3309    6649015.2    6724.9433    48.731617    2.3577398    154361.45    156920.71 
  393300     1096.893    6644473.9    6724.9433    48.731617    2.3577398    154247.35    156843.43 
  393400    1067.2609    6642218.6    6724.9433    48.731617    2.3577398    154203.86    156729.81 
  393500    1071.6538    6640909.3    6724.9433    48.731617    2.3577398    154169.61    156705.96 
  393600     1080.054    6642071.5    6724.9433    48.731617    2.3577398    154195.19    156751.42 
  393700    1090.4698    6642423.7    6724.9433    48.731617    2.3577398    154199.05    156779.93 
  393800    1091.7755    6642797.6    6724.9433    48.731617    2.3577398    154208.96    156792.94 
  393900    1111.7461    6642299.7    6724.9433    48.731617    2.3577398    154187.91    156819.15 
  394000    1113.8247    6643721.1    6724.9433    48.731617    2.3577398    154221.99    156858.15 
  394100    1130.5486    6642783.1    6724.9433    48.731617    2.3577398    154191.14    156866.88 
  394200    1114.1666    6641235.8    6724.9433    48.731617    2.3577398    154160.42    156797.39 
  394300    1036.9464    6642910.3    6724.9433    48.731617    2.3577398    154232.31    156686.51 
  394400    1087.4634    6637085.6    6724.9433    48.731617    2.3577398    154069.93     156643.7 
  394500    1096.2074      6641816    6724.9433    48.731617    2.3577398    154182.15    156776.62 
  394600    1102.0422    6647357.2    6724.9433    48.731617    2.3577398     154314.9    156923.17 
  394700    1096.4902    6646234.4    6724.9433    48.731617    2.3577398    154289.72    156884.85 
  394800    1085.5651    6641612.7    6724.9433    48.731617    2.3577398    154182.36    156751.63 
  394900    1104.3539    6638261.4    6724.9433    48.731617    2.3577398    154093.96     156707.7 
  395000    1081.1972    6641765.1    6724.9433    48.731617    2.3577398     154187.4    156746.34 
  395100    1112.7459    6640942.5    6724.9433    48.731617    2.3577398    154153.46    156787.06 
  395200    1117.7765    6640838.4    6724.9433    48.731617    2.3577398    154151.56    156797.07 
  395300    1058.6503    6645277.4    6724.9433    48.731617    2.3577398    154281.76    156787.34 
  395400    1074.0846      6643794    6724.9433    48.731617    2.3577398    154237.75    156779.85 
  395500    1100.4872      6642677    6724.9433    48.731617    2.3577398    154201.54    156806.14 
  395600    1075.0842    6646477.1    6724.9433    48.731617    2.3577398    154304.89    156849.36 
  395700    1147.8349    6641426.9    6724.9433    48.731617    2.3577398    154152.32    156868.97 
  395800    1068.2946    6645216.1    6724.9433    48.731617    2.3577398    154276.06    156804.46 
  395900    1085.1018    6638186.7    6724.9433    48.731617    2.3577398    154099.42    156667.59 
  396000    1057.4649    6638692.7    6724.9433    48.731617    2.3577398    154120.99    156623.76 
  396100     1088.171      6643395    6724.9433    48.731617    2.3577398    154224.82    156800.27 
  396200    1106.0482    6645690.9    6724.9433    48.731617    2.3577398    154273.77    156891.53 
  396300    1133.5066    6642325.2    6724.9433    48.731617    2.3577398    154180.13    156862.88 
  396400    1083.4038    6642150.6    6724.9433    48.731617    2.3577398    154195.17    156759.33 
  396500    1075.7371    6638599.6    6724.9433    48.731617    2.3577398     154112.3    156658.32 
  396600    1071.7123    6639519.5    6724.9433    48.731617    2.3577398    154136.94    156673.43 
  396700    1085.2427    6648067.1    6724.9433    48.731617    2.3577398     154338.2    156906.71 
  396800    1176.9364    6641949.5    6724.9433    48.731617    2.3577398    154153.49    156939.02 
  396900    1128.5575    6641165.1    6724.9433    48.731617    2.3577398       154153    156824.03 
  397000    1062.1313      6641744    6724.9433    48.731617    2.3577398    154191.87    156705.68 
  397100    1083.1226    6639834.7    6724.9433    48.731617    2.3577398    154139.38    156702.87 
  397200    1084.8997    6643393.6    6724.9433    48.731617    2.3577398    154224.99    156792.69 
  397300    1126.6313    6649711.4    6724.9433    48.731617    2.3577398    154362.74    157029.21 
  397400    1188.7867    6644374.2    6724.9433    48.731617    2.3577398    154207.98    157021.56 
  397500    1115.0345      6645107    6724.9433    48.731617    2.3577398    154254.22    156893.24 
  397600    1088.7224    6642195.6    6724.9433    48.731617    2.3577398    154195.09    156771.84 
  397700    1029.3158    6644303.4    6724.9433    48.731617    2.3577398    154269.78    156705.92 
  397800    1055.6116      6643508    6724.9433    48.731617    2.3577398    154238.57    156736.95 
  397900    1144.3053    6644383.5    6724.9433    48.731617    2.3577398    154224.86    156933.16 
  398000    1163.0515      6645457    6724.9433    48.731617    2.3577398    154244.36    156997.03 
  398100    1117.5224    6644676.7    6724.9433    48.731617    2.3577398     154244.1    156889.01 
  398200    1095.1619    6642757.5    6724.9433    48.731617    2.3577398    154204.97    156796.96 
  398300    1088.9976    6641916.4    6724.9433    48.731617    2.3577398    154188.53    156765.93 
  398400    1093.8907    6641297.4    6724.9433    48.731617    2.3577398    154168.98    156757.96 
  398500    1077.4283    6645839.9    6724.9433    48.731617    2.3577398    154287.68     156837.7 
  398600    1171.8743    6645444.1    6724.9433    48.731617    2.3577398    154240.94    157014.49 
  398700    1133.6109    6646449.9    6724.9433    48.731617    2.3577398    154279.88    156962.87 
  398800     1117.921    6641325.1    6724.9433    48.731617    2.3577398    154161.85     156807.7 
  398900    1084.5746    6642015.5    6724.9433    48.731617    2.3577398     154191.1    156758.03 
  399000    1095.5144    6640920.1    6724.9433    48.731617    2.3577398    154160.96    156753.78 
  399100    1086.8342    6644311.7    6724.9433    48.731617    2.3577398    154246.55    156818.83 
  399200    1114.2805      6649626    6724.9433    48.731617    2.3577398    154364.76       157002 
  399300    1098.9574    6650476.6    6724.9433    48.731617    2.3577398    154390.83    156991.81 
  399400    1090.2767    6643890.9    6724.9433    48.731617    2.3577398    154235.14    156815.56 
  399500    1097.5638    6641489.9    6724.9433    48.731617    2.3577398    154173.77    156771.45 
  399600    1078.5828    6643434.5    6724.9433    48.731617    2.3577398    154230.15     156782.9 
  399700    1120.4765    6640597.5    6724.9433    48.731617    2.3577398    154141.75    156793.65 
  399800    1112.0399    6643358.7    6724.9433    48.731617    2.3577398    154214.63    156846.57 
  399900    1067.0724    6649674.7    6724.9433    48.731617    2.3577398    154383.97    156909.48 
  400000    1103.0446    6646184.6    6724.9433    48.731617    2.3577398    154284.65     156895.3 
  400100    1053.1775    6644044.9    6724.9433    48.731617    2.3577398    154253.25    156745.87 
Loop time of 415.764 on 1 procs for 400000 steps with 795 atoms

Performance: 20.781 ns/day, 1.155 hours/ns, 962.084 timesteps/s
99.8% CPU use with 1 MPI tasks x no OpenMP threads

MPI task timing breakdown:
Section |  min time  |  avg time  |  max time  |%varavg| %total
---------------------------------------------------------------
Pair    | 361.12     | 361.12     | 361.12     |   0.0 | 86.86
Neigh   | 24.575     | 24.575     | 24.575     |   0.0 |  5.91
Comm    | 17.272     | 17.272     | 17.272     |   0.0 |  4.15
Output  | 1.45       | 1.45       | 1.45       |   0.0 |  0.35
Modify  | 7.7254     | 7.7254     | 7.7254     |   0.0 |  1.86
Other   |            | 3.627      |            |       |  0.87

Nlocal:            795 ave         795 max         795 min
Histogram: 1 0 0 0 0 0 0 0 0 0
Nghost:           6173 ave        6173 max        6173 min
Histogram: 1 0 0 0 0 0 0 0 0 0
Neighs:          53244 ave       53244 max       53244 min
Histogram: 1 0 0 0 0 0 0 0 0 0

Total # of neighbors = 53244
Ave neighs/atom = 66.973585
Neighbor list builds = 11935
Dangerous builds = 31

write_data graphene_single_layer_LJ_795C_after_temp_1100K_nv.data ### MODIFY FILE NAME ###
System init for write_data ...
  generated 0 of 0 mixed pair_coeff terms from geometric mixing rule
Total wall time: 0:06:56
