# System definition
read_data graphene_single_layer_x-45_y_45_795_C_nv.data  ### MODIFY FILE NAME ###
Reading data file ...
  orthogonal box = (-1.4464652 -1.4423034 -1.42) to (47.285152 47.149102 1.42)
  1 by 1 by 1 MPI processor grid
  reading atoms ...
  795 atoms
  reading velocities ...
  795 velocities
  read_data CPU = 0.016 seconds
pair_style lj/cut 6
pair_coeff      1 1 0.066047 3.4

# Virtual force wall to keep the cylinder shape
#region myCylinder cylinder z 0. 0. 20.3 -22.079997 505.920003 units box
#fix wall all wall/region myCylinder lj93 1.0 1.0 2.5

# Minimization
timestep 0.25
thermo 100
thermo_style custom step temp press vol lx density pe etotal
dump 2 all custom 1000 graphene_single_layer_LJ_795C_after_temp_900K_nv.lammpstrj id type x y z ### MODIFY FILE NAME ###
min_style cg
minimize 1.0e-6 1.0e-6 100 1000
WARNING: Using 'neigh_modify every 1 delay 0 check yes' setting during minimization (../min.cpp:187)
  generated 0 of 0 mixed pair_coeff terms from geometric mixing rule
Neighbor list info ...
  update every 1 steps, delay 0 steps, check yes
  max neighbors/atom: 10000, page size: 100000
  master list distance cutoff = 6.4
  ghost atom cutoff = 6.4
  binsize = 3.2, bins = 16 16 1
  1 neighbor lists, perpetual/occasional/extra = 1 0 0
  (1) pair lj/cut, perpetual
      attributes: half, newton on
      pair build: half/bin/atomonly/newton
      stencil: half/bin/3d
      bin: standard
Per MPI rank memory allocation (min/avg/max) = 5.847 | 5.847 | 5.847 Mbytes
Step Temp Press Volume Lx Density PotEng TotEng 
       0          923 3.5764745e+08    6724.9433    48.731617    2.3577398    8739313.6    8741498.1 
     100          923     47792497    6724.9433    48.731617    2.3577398    1156645.3    1158829.8 
Loop time of 0.2298 on 1 procs for 100 steps with 795 atoms

100.0% CPU use with 1 MPI tasks x no OpenMP threads

Minimization stats:
  Stopping criterion = max iterations
  Energy initial, next-to-last, final = 
       8739313.5743934   1166159.30364263   1156645.25969717
  Force two-norm initial, final = 757147.49 41890.076
  Force max component initial, final = 127132.22 10243.229
  Final line search alpha, max atom move = 3.9224736e-06 0.040178794
  Iterations, force evaluations = 100 123

MPI task timing breakdown:
Section |  min time  |  avg time  |  max time  |%varavg| %total
---------------------------------------------------------------
Pair    | 0.15455    | 0.15455    | 0.15455    |   0.0 | 67.25
Neigh   | 0.063527   | 0.063527   | 0.063527   |   0.0 | 27.64
Comm    | 0.0072496  | 0.0072496  | 0.0072496  |   0.0 |  3.15
Output  | 8.21e-05   | 8.21e-05   | 8.21e-05   |   0.0 |  0.04
Modify  | 0          | 0          | 0          |   0.0 |  0.00
Other   |            | 0.004391   |            |       |  1.91

Nlocal:            795 ave         795 max         795 min
Histogram: 1 0 0 0 0 0 0 0 0 0
Nghost:           5526 ave        5526 max        5526 min
Histogram: 1 0 0 0 0 0 0 0 0 0
Neighs:          50620 ave       50620 max       50620 min
Histogram: 1 0 0 0 0 0 0 0 0 0

Total # of neighbors = 50620
Ave neighs/atom = 63.672956
Neighbor list builds = 37
Dangerous builds = 0
#timestep 0.25
fix 1 all nvt temp 900.0 900.0 $(100.0*dt) ### MODIFY INITIAL TEMP, FINAL TEMP ###
fix 1 all nvt temp 900.0 900.0 25 
run 400000
  generated 0 of 0 mixed pair_coeff terms from geometric mixing rule
Per MPI rank memory allocation (min/avg/max) = 4.725 | 4.725 | 4.725 Mbytes
Step Temp Press Volume Lx Density PotEng TotEng 
     100          923     47792497    6724.9433    48.731617    2.3577398    1156645.3    1158829.8 
     200    20183.879     10779528    6724.9433    48.731617    2.3577398    247237.76    295008.23 
     300    5373.9659      8305774    6724.9433    48.731617    2.3577398    192899.36    205618.27 
     400    2343.0435    7682064.4    6724.9433    48.731617    2.3577398    178933.17    184478.59 
     500     1526.809    7427201.5    6724.9433    48.731617    2.3577398    173064.55    176678.15 
     600    1040.2509    7311727.5    6724.9433    48.731617    2.3577398    170448.91    172910.94 
     700    988.25019    7216190.2    6724.9433    48.731617    2.3577398    168148.58    170487.53 
     800    875.95337    7153199.8    6724.9433    48.731617    2.3577398    166664.34    168737.52 
     900    882.78193    7092408.5    6724.9433    48.731617    2.3577398    165186.72    167276.06 
    1000    739.40668    7062586.5    6724.9433    48.731617    2.3577398    164518.27    166268.27 
    1100    800.82717    7046245.7    6724.9433    48.731617    2.3577398    164099.29    165994.66 
    1200    1031.9265    7032498.3    6724.9433    48.731617    2.3577398    163674.04    166116.36 
    1300    1031.8176    7024327.7    6724.9433    48.731617    2.3577398    163477.86    165919.92 
    1400    937.90107    7004815.2    6724.9433    48.731617    2.3577398     163040.1    165259.89 
    1500     859.9383    6980437.6    6724.9433    48.731617    2.3577398     162478.4    164513.67 
    1600    869.08655    6959772.2    6724.9433    48.731617    2.3577398    161973.67    164030.59 
    1700    905.44864    6941775.8    6724.9433    48.731617    2.3577398    161523.76    163666.75 
    1800    874.30252    6930915.4    6724.9433    48.731617    2.3577398     161273.3    163342.56 
    1900    876.31285    6921836.8    6724.9433    48.731617    2.3577398    161053.26    163127.28 
    2000     998.2343    6903474.5    6724.9433    48.731617    2.3577398    160559.95    162922.54 
    2100    969.56026    6874878.4    6724.9433    48.731617    2.3577398    159876.71    162171.43 
    2200    933.03966    6841219.2    6724.9433    48.731617    2.3577398    159075.43    161283.71 
    2300    829.49085    6819722.2    6724.9433    48.731617    2.3577398    158594.54    160557.75 
    2400    822.34587      6806861    6724.9433    48.731617    2.3577398    158284.37    160230.67 
    2500    848.35779    6806963.6    6724.9433    48.731617    2.3577398    158278.16    160286.03 
    2600    917.94618    6814097.3    6724.9433    48.731617    2.3577398    158427.07    160599.63 
    2700    1077.7354    6813402.3    6724.9433    48.731617    2.3577398    158346.54    160897.28 
    2800    1052.7726      6798686    6724.9433    48.731617    2.3577398    158000.51    160492.17 
    2900    898.35064    6771714.4    6724.9433    48.731617    2.3577398    157406.99    159533.17 
    3000    816.60951    6746789.9    6724.9433    48.731617    2.3577398    156832.99    158765.71 
    3100    795.60142    6736638.7    6724.9433    48.731617    2.3577398    156593.75    158476.75 
    3200    892.03573    6733601.1    6724.9433    48.731617    2.3577398    156482.71    158593.95 
    3300    940.37715    6737438.8    6724.9433    48.731617    2.3577398     156558.2    158783.85 
    3400    1043.3631    6732684.5    6724.9433    48.731617    2.3577398    156401.48    158870.87 
    3500    930.88947    6722136.7    6724.9433    48.731617    2.3577398    156191.91    158395.11 
    3600    815.04472    6702290.6    6724.9433    48.731617    2.3577398    155753.17    157682.19 
    3700    802.31311    6688822.5    6724.9433    48.731617    2.3577398    155430.24    157329.13 
    3800    906.26267    6681706.6    6724.9433    48.731617    2.3577398    155219.12    157364.03 
    3900    970.51743    6679561.6    6724.9433    48.731617    2.3577398    155143.32    157440.31 
    4000    946.78241    6680215.2    6724.9433    48.731617    2.3577398    155166.01    157406.82 
    4100    887.00609    6682086.9    6724.9433    48.731617    2.3577398    155234.98    157334.32 
    4200    851.76263    6682983.3    6724.9433    48.731617    2.3577398    155270.61    157286.53 
    4300    891.39909    6683318.4    6724.9433    48.731617    2.3577398    155264.35    157374.08 
    4400    888.46338    6689385.3    6724.9433    48.731617    2.3577398    155412.89    157515.67 
    4500    996.53933    6685239.5    6724.9433    48.731617    2.3577398    155270.61    157629.19 
    4600     871.9125    6686014.8    6724.9433    48.731617    2.3577398    155335.92    157399.53 
    4700    857.03562    6678108.8    6724.9433    48.731617    2.3577398    155150.52    157178.92 
    4800    872.36146    6676723.8    6724.9433    48.731617    2.3577398    155111.39    157176.06 
    4900    909.10878      6679860    6724.9433    48.731617    2.3577398    155174.57    157326.21 
    5000    943.73503    6685268.3    6724.9433    48.731617    2.3577398    155291.03    157524.63 
    5100    937.22428    6686416.9    6724.9433    48.731617    2.3577398    155321.69    157539.88 
    5200    997.78928    6669859.2    6724.9433    48.731617    2.3577398    154895.73    157257.26 
    5300     863.4991    6657412.8    6724.9433    48.731617    2.3577398    154648.74    156692.44 
    5400     743.5147    6652591.5    6724.9433    48.731617    2.3577398    154577.77     156337.5 
    5500     848.5595    6648280.1    6724.9433    48.731617    2.3577398    154432.96     156441.3 
    5600    886.32812    6662539.8    6724.9433    48.731617    2.3577398    154763.92    156861.65 
    5700    1003.7143    6672520.9    6724.9433    48.731617    2.3577398    154961.13    157336.69 
    5800    999.67652    6672092.1    6724.9433    48.731617    2.3577398    154951.85    157317.85 
    5900    881.76475    6661710.3    6724.9433    48.731617    2.3577398    154746.55    156833.48 
    6000    796.94362    6652964.9    6724.9433    48.731617    2.3577398    154566.04    156452.21 
    6100    822.17684      6652622    6724.9433    48.731617    2.3577398    154547.87    156493.77 
    6200    955.59706    6657207.4    6724.9433    48.731617    2.3577398    154607.35    156869.02 
    6300    989.30789    6666779.3    6724.9433    48.731617    2.3577398    154826.37    157167.82 
    6400    912.83145    6671552.7    6724.9433    48.731617    2.3577398    154971.32    157131.77 
    6500    891.17956    6661547.4    6724.9433    48.731617    2.3577398    154737.86    156847.08 
    6600    843.73116    6656253.9    6724.9433    48.731617    2.3577398     154627.9    156624.81 
    6700    886.76437    6654121.7    6724.9433    48.731617    2.3577398    154559.59    156658.35 
    6800    934.95852    6658607.6    6724.9433    48.731617    2.3577398    154649.09    156861.92 
    6900    947.60233    6663912.3    6724.9433    48.731617    2.3577398    154774.14    157016.89 
    7000    916.37268    6663160.3    6724.9433    48.731617    2.3577398    154768.03    156936.86 
    7100    863.19013      6661432    6724.9433    48.731617    2.3577398    154746.88    156789.85 
    7200    882.83816    6659720.9    6724.9433    48.731617    2.3577398    154697.93     156787.4 
    7300       912.39    6661884.9    6724.9433    48.731617    2.3577398    154738.41    156897.82 
    7400    945.17734    6662860.9    6724.9433    48.731617    2.3577398    154749.86    156986.88 
    7500    907.34764    6662608.5    6724.9433    48.731617    2.3577398    154758.13    156905.61 
    7600    872.42976    6658076.4    6724.9433    48.731617    2.3577398     154660.2    156725.03 
    7700    852.78888    6656400.4    6724.9433    48.731617    2.3577398    154627.85     156646.2 
    7800    873.71492    6660134.6    6724.9433    48.731617    2.3577398    154711.56    156779.44 
    7900    935.46845    6666897.5    6724.9433    48.731617    2.3577398    154853.01    157067.04 
    8000    998.22527      6666933    6724.9433    48.731617    2.3577398     154825.6    157188.17 
    8100    901.22481    6664638.5    6724.9433    48.731617    2.3577398    154808.96    156941.95 
    8200    852.29994    6655557.8    6724.9433    48.731617    2.3577398    154608.41     156625.6 
    8300    851.66037    6650851.3    6724.9433    48.731617    2.3577398    154495.45    156511.13 
    8400    858.09825    6658980.6    6724.9433    48.731617    2.3577398     154690.3    156721.21 
    8500    906.33313      6670528    6724.9433    48.731617    2.3577398    154950.35    157095.42 
    8600    972.24509    6672312.2    6724.9433    48.731617    2.3577398    154968.91    157269.98 
    8700    944.32778      6664451    6724.9433    48.731617    2.3577398    154786.55    157021.55 
    8800    859.94235    6653860.5    6724.9433    48.731617    2.3577398    154564.66    156599.94 
    8900    798.06888    6652081.8    6724.9433    48.731617    2.3577398    154545.77    156434.61 
    9000     860.6206    6655576.9    6724.9433    48.731617    2.3577398    154603.85    156640.74 
    9100    923.75162    6668273.6    6724.9433    48.731617    2.3577398     154888.8     157075.1 
    9200    999.16692    6672122.3    6724.9433    48.731617    2.3577398    154951.73    157316.52 
    9300     952.1065      6665521    6724.9433    48.731617    2.3577398    154810.84    157064.25 
    9400    859.05934    6656052.4    6724.9433    48.731617    2.3577398    154618.29    156651.48 
    9500     799.6389    6652214.5    6724.9433    48.731617    2.3577398    154546.61    156439.17 
    9600    803.11299    6658657.6    6724.9433    48.731617    2.3577398    154703.29    156604.07 
    9700    921.64507    6666561.4    6724.9433    48.731617    2.3577398    154848.18     157029.5 
    9800    1032.6731    6667549.4    6724.9433    48.731617    2.3577398    154829.05    157273.14 
    9900     924.9589    6668093.4    6724.9433    48.731617    2.3577398    154884.31    157073.47 
   10000    839.51137    6659691.4    6724.9433    48.731617    2.3577398     154712.7    156699.62 
   10100    820.73281      6653374    6724.9433    48.731617    2.3577398    154566.57    156509.05 
   10200    842.39528    6656478.1    6724.9433    48.731617    2.3577398    154633.84    156627.59 
   10300    891.51894    6665928.6    6724.9433    48.731617    2.3577398    154843.63    156953.64 
   10400     1005.389      6665945    6724.9433    48.731617    2.3577398    154800.76    157180.28 
   10500    928.71884    6666769.5    6724.9433    48.731617    2.3577398    154849.84     157047.9 
   10600    846.50139    6661065.1    6724.9433    48.731617    2.3577398    154744.31    156747.78 
   10700    859.84726    6653973.7    6724.9433    48.731617    2.3577398    154566.34     156601.4 
   10800    865.52255    6658275.5    6724.9433    48.731617    2.3577398    154669.25    156717.74 
   10900    936.24294    6662847.8    6724.9433    48.731617    2.3577398    154752.76    156968.62 
   11000     974.2594    6664081.5    6724.9433    48.731617    2.3577398    154767.13    157072.98 
   11100    908.11075    6663982.6    6724.9433    48.731617    2.3577398    154790.94    156940.22 
   11200     895.0105    6656669.5    6724.9433    48.731617    2.3577398    154617.95    156736.23 
   11300    818.26194      6660480    6724.9433    48.731617    2.3577398    154740.44    156677.07 
   11400    886.02743    6661205.6    6724.9433    48.731617    2.3577398     154731.9    156828.92 
   11500     929.7295    6664537.8    6724.9433    48.731617    2.3577398    154795.84    156996.29 
   11600    957.01787    6662461.6    6724.9433    48.731617    2.3577398    154734.72    156999.76 
   11700     912.7549    6658123.2    6724.9433    48.731617    2.3577398    154647.17    156807.45 
   11800    841.89422    6658604.9    6724.9433    48.731617    2.3577398    154687.28    156679.84 
   11900    822.01847    6663002.1    6724.9433    48.731617    2.3577398    154800.94    156746.46 
   12000    877.54494    6666968.1    6724.9433    48.731617    2.3577398    154875.56     156952.5 
   12100     982.8955    6663701.2    6724.9433    48.731617    2.3577398    154755.09    157081.37 
   12200    941.01166      6661851    6724.9433    48.731617    2.3577398    154726.28    156953.44 
   12300    852.90139    6658445.2    6724.9433    48.731617    2.3577398    154678.06    156696.67 
   12400     817.5414    6657128.2    6724.9433    48.731617    2.3577398    154661.33    156596.26 
   12500    877.30207    6659109.7    6724.9433    48.731617    2.3577398    154684.93    156761.29 
   12600    950.11246    6664678.5    6724.9433    48.731617    2.3577398    154792.41     157041.1 
   12700    957.05165    6668913.9    6724.9433    48.731617    2.3577398     154891.7    157156.81 
   12800    912.32375    6664125.4    6724.9433    48.731617    2.3577398     154793.3    156952.55 
   12900    859.89737    6655993.2    6724.9433    48.731617    2.3577398    154615.31    156650.48 
   13000    829.32569    6653851.3    6724.9433    48.731617    2.3577398    154576.26    156539.08 
   13100    868.59609    6658341.1    6724.9433    48.731617    2.3577398    154670.49    156726.26 
   13200    926.14595    6667630.2    6724.9433    48.731617    2.3577398    154873.09    157065.06 
   13300    991.16897      6668474    6724.9433    48.731617    2.3577398    154867.77    157213.64 
   13400     933.0458    6663949.2    6724.9433    48.731617    2.3577398    154780.85    156989.15 
   13500    875.60172    6655069.4    6724.9433    48.731617    2.3577398    154586.66       156659 
   13600    812.32715    6654623.2    6724.9433    48.731617    2.3577398    154600.26    156522.85 
   13700    860.24499    6657380.7    6724.9433    48.731617    2.3577398     154649.2    156685.19 
   13800     933.1897    6664984.4    6724.9433    48.731617    2.3577398    154806.11    157014.75 
   13900    977.77971    6669177.3    6724.9433    48.731617    2.3577398    154890.21    157204.38 
   14000    968.39563    6662614.4    6724.9433    48.731617    2.3577398    154734.53    157026.49 
   14100     883.3988    6656600.1    6724.9433    48.731617    2.3577398     154622.7    156713.49 
   14200    818.77527    6655502.7    6724.9433    48.731617    2.3577398    154620.71    156558.56 
   14300    846.27808    6658294.8    6724.9433    48.731617    2.3577398    154676.36     156679.3 
   14400    959.43983    6660086.4    6724.9433    48.731617    2.3577398     154676.5    156947.26 
   14500    984.02815    6665305.3    6724.9433    48.731617    2.3577398    154794.56    157123.52 
   14600     927.0391    6666729.7    6724.9433    48.731617    2.3577398    154850.83    157044.92 
   14700    886.77257    6659887.8    6724.9433    48.731617    2.3577398    154699.67    156798.46 
   14800    828.15922      6657877    6724.9433    48.731617    2.3577398    154674.78    156634.83 
   14900    840.74624    6659032.5    6724.9433    48.731617    2.3577398    154697.91    156687.75 
   15000    902.12788      6662132    6724.9433    48.731617    2.3577398    154748.99    156884.11 
   15100    979.44977    6661837.4    6724.9433    48.731617    2.3577398    154709.95    157028.08 
   15200    945.18651    6663204.3    6724.9433    48.731617    2.3577398    154758.78    156995.81 
   15300    895.78221    6661267.1    6724.9433    48.731617    2.3577398    154730.27    156850.38 
   15400    889.79248    6657558.6    6724.9433    48.731617    2.3577398    154641.23    156747.16 
   15500    894.01775    6657704.4    6724.9433    48.731617    2.3577398    154644.07       156760 
   15600    887.57613    6661721.8    6724.9433    48.731617    2.3577398    154744.04    156844.72 
   15700    908.64785    6662643.1    6724.9433    48.731617    2.3577398    154758.97    156909.52 
   15800    900.72047      6663138    6724.9433    48.731617    2.3577398    154772.94    156904.74 
   15900    917.16714    6660680.9    6724.9433    48.731617    2.3577398    154707.47    156878.18 
   16000    922.04987    6659694.5    6724.9433    48.731617    2.3577398    154681.54    156863.81 
   16100    929.44449    6658506.7    6724.9433    48.731617    2.3577398    154649.03    156848.81 
   16200    932.30089    6657949.3    6724.9433    48.731617    2.3577398    154635.65    156842.19 
   16300    943.11358    6655905.3    6724.9433    48.731617    2.3577398    154580.83    156812.96 
   16400    869.60004    6660980.1    6724.9433    48.731617    2.3577398    154733.48    156791.62 
   16500    879.03229    6662576.6    6724.9433    48.731617    2.3577398    154768.43    156848.89 
   16600    893.62531    6665525.4    6724.9433    48.731617    2.3577398    154835.05    156950.05 
   16700    939.49583    6663315.1    6724.9433    48.731617    2.3577398     154763.8    156987.36 
   16800    928.77758    6659857.7    6724.9433    48.731617    2.3577398    154681.75    156879.95 
   16900    869.83278    6658556.3    6724.9433    48.731617    2.3577398    154673.82    156732.51 
   17000    833.12617      6659417    6724.9433    48.731617    2.3577398    154711.22    156683.04 
   17100    881.49906    6659997.8    6724.9433    48.731617    2.3577398    154704.02    156790.32 
   17200     892.5671    6667455.2    6724.9433    48.731617    2.3577398    154881.58    156994.08 
   17300    983.69917    6663955.5    6724.9433    48.731617    2.3577398    154760.97    157089.15 
   17400    949.33739    6660941.9    6724.9433    48.731617    2.3577398    154700.96    156947.82 
   17500    842.24116    6659381.8    6724.9433    48.731617    2.3577398    154704.89    156698.28 
   17600    821.81263    6656017.4    6724.9433    48.731617    2.3577398     154631.3    156576.33 
   17700    879.25489    6657398.2    6724.9433    48.731617    2.3577398    154642.23    156723.22 
   17800    904.05919      6667016    6724.9433    48.731617    2.3577398    154867.42    157007.11 
   17900    1015.0747    6665464.9    6724.9433    48.731617    2.3577398    154785.43    157187.87 
   18000    899.25319    6668176.6    6724.9433    48.731617    2.3577398    154896.46    157024.78 
   18100    825.78194    6660793.9    6724.9433    48.731617    2.3577398    154746.27     156700.7 
   18200    833.07781      6652962    6724.9433    48.731617    2.3577398     154552.7     156524.4 
   18300    829.97851    6657608.4    6724.9433    48.731617    2.3577398    154666.88    156631.24 
   18400    898.72912    6665882.8    6724.9433    48.731617    2.3577398    154840.83    156967.91 
   18500    981.68306    6669705.4    6724.9433    48.731617    2.3577398     154901.7    157225.11 
   18600    951.40476    6667597.1    6724.9433    48.731617    2.3577398    154862.42    157114.17 
   18700    908.03196    6656596.4    6724.9433    48.731617    2.3577398    154612.68    156761.78 
   18800    825.25423    6652966.2    6724.9433    48.731617    2.3577398    154556.61    156509.79 
   18900    858.49386    6652563.3    6724.9433    48.731617    2.3577398    154534.35     156566.2 
   19000    902.85073    6662100.7    6724.9433    48.731617    2.3577398    154747.63    156884.46 
   19100    1003.9066    6666935.4    6724.9433    48.731617    2.3577398    154826.03    157202.04 
   19200    970.19794    6668735.7    6724.9433    48.731617    2.3577398    154882.45    157178.68 
   19300    881.27808    6661715.6    6724.9433    48.731617    2.3577398    154746.98    156832.76 
   19400    842.17693    6653043.8    6724.9433    48.731617    2.3577398    154551.43    156544.66 
   19500    850.93322    6652227.6    6724.9433    48.731617    2.3577398    154528.75    156542.71 
   19600    896.25704      6659706    6724.9433    48.731617    2.3577398    154691.48    156812.71 
   19700    947.47695    6669097.3    6724.9433    48.731617    2.3577398    154900.45     157142.9 
   19800    967.17601    6669372.8    6724.9433    48.731617    2.3577398     154898.5    157187.57 
   19900    914.67087    6662180.8    6724.9433    48.731617    2.3577398    154744.54    156909.35 
   20000    833.87893    6656458.9    6724.9433    48.731617    2.3577398    154637.18    156610.77 
   20100    818.72785    6655393.3    6724.9433    48.731617    2.3577398    154616.72    156554.45 
   20200    895.60294    6658546.1    6724.9433    48.731617    2.3577398    154664.39    156784.07 
   20300    951.06125    6665568.7    6724.9433    48.731617    2.3577398    154814.03    157064.97 
   20400    971.82632    6667055.7    6724.9433    48.731617    2.3577398    154839.87    157139.95 
   20500    946.48513    6661188.1    6724.9433    48.731617    2.3577398    154709.09     156949.2 
   20600    824.70518      6660012    6724.9433    48.731617    2.3577398    154727.06    156678.94 
   20700    856.74771    6654030.7    6724.9433    48.731617    2.3577398    154570.86    156598.58 
   20800    919.24171    6655050.2    6724.9433    48.731617    2.3577398    154569.45    156745.08 
   20900    971.66733    6660971.9    6724.9433    48.731617    2.3577398    154691.59     156991.3 
   21000    939.59211    6667573.1    6724.9433    48.731617    2.3577398    154866.87    157090.66 
   21100    898.42064    6665381.3    6724.9433    48.731617    2.3577398    154829.09    156955.44 
   21200      882.761    6658219.1    6724.9433    48.731617    2.3577398    154661.96    156751.24 
   21300    845.30359    6657629.4    6724.9433    48.731617    2.3577398    154661.59    156662.22 
   21400    869.89897    6659468.7    6724.9433    48.731617    2.3577398    154697.53    156756.38 
   21500    919.25229      6663095    6724.9433    48.731617    2.3577398     154764.7    156940.36 
   21600    934.41234    6664889.1    6724.9433    48.731617    2.3577398    154802.62    157014.16 
   21700    902.98624    6663992.4    6724.9433    48.731617    2.3577398    154793.56    156930.71 
   21800    875.77195    6660680.1    6724.9433    48.731617    2.3577398    154723.21    156795.96 
   21900    884.03272    6657492.8    6724.9433    48.731617    2.3577398    154642.99    156735.28 
   22000    851.76513    6662142.9    6724.9433    48.731617    2.3577398    154768.57     156784.5 
   22100    915.01816    6661629.5    6724.9433    48.731617    2.3577398    154731.17     156896.8 
   22200    900.92488    6665019.9    6724.9433    48.731617    2.3577398     154819.1    156951.37 
   22300    857.29726    6665916.5    6724.9433    48.731617    2.3577398    154857.37    156886.39 
   22400     918.3569    6658394.2    6724.9433    48.731617    2.3577398    154651.16    156824.69 
   22500     898.9895    6659464.7    6724.9433    48.731617    2.3577398    154686.19    156813.88 
   22600    901.49586    6660871.4    6724.9433    48.731617    2.3577398    154717.08    156850.71 
   22700     893.5789    6662754.4    6724.9433    48.731617    2.3577398    154768.02    156882.91 
   22800    895.11964    6661914.7    6724.9433    48.731617    2.3577398     154745.2    156863.74 
   22900    889.29589    6660894.8    6724.9433    48.731617    2.3577398    154723.23    156827.99 
   23000    893.32843    6660416.9    6724.9433    48.731617    2.3577398    154710.58    156824.88 
   23100    920.20954      6660283    6724.9433    48.731617    2.3577398    154697.39     156875.3 
   23200    932.45141    6661142.5    6724.9433    48.731617    2.3577398    154711.19    156918.08 
   23300    915.80546    6661404.4    6724.9433    48.731617    2.3577398    154725.82    156893.31 
   23400    918.36452    6657955.4    6724.9433    48.731617    2.3577398    154640.38    156813.93 
   23500    900.84829    6657451.8    6724.9433    48.731617    2.3577398     154634.9       156767 
   23600    901.88728    6659118.9    6724.9433    48.731617    2.3577398    154675.22    156809.77 
   23700    874.29707    6665654.1    6724.9433    48.731617    2.3577398    154845.31    156914.57 
   23800    924.33596    6664444.6    6724.9433    48.731617    2.3577398     154795.8    156983.49 
   23900    921.81684    6661969.5    6724.9433    48.731617    2.3577398    154736.75    156918.47 
   24000    874.89279    6660109.6    6724.9433    48.731617    2.3577398    154709.91    156780.58 
   24100    888.84456    6656268.6    6724.9433    48.731617    2.3577398    154611.95    156715.64 
   24200     879.1269    6659995.2    6724.9433    48.731617    2.3577398    154704.63    156785.31 
   24300    916.71659    6662645.8    6724.9433    48.731617    2.3577398    154755.69    156925.34 
   24400    943.53742    6663667.6    6724.9433    48.731617    2.3577398     154769.1    157002.22 
   24500    922.99733      6662518    6724.9433    48.731617    2.3577398    154749.29     156933.8 
   24600    894.08257    6658802.2    6724.9433    48.731617    2.3577398    154670.17    156786.25 
   24700    882.10388    6656469.6    6724.9433    48.731617    2.3577398    154621.04    156708.77 
   24800    873.21599    6659931.8    6724.9433    48.731617    2.3577398    154705.18    156771.88 
   24900    905.64061    6663437.9    6724.9433    48.731617    2.3577398    154779.59    156923.03 
   25000    958.51073    6663293.7    6724.9433    48.731617    2.3577398    154755.51    157024.07 
   25100     883.6024    6665830.5    6724.9433    48.731617    2.3577398    154845.29    156936.57 
   25200    876.25659    6659636.9    6724.9433    48.731617    2.3577398    154698.71    156772.61 
   25300    854.31142    6658010.9    6724.9433    48.731617    2.3577398    154667.66    156689.61 
   25400    861.81899    6660651.3    6724.9433    48.731617    2.3577398     154728.6    156768.32 
   25500    910.35084    6663613.5    6724.9433    48.731617    2.3577398    154781.02    156935.61 
   25600    952.83431    6663851.6    6724.9433    48.731617    2.3577398    154770.88    157026.01 
   25700    924.72704    6662287.5    6724.9433    48.731617    2.3577398    154743.46    156932.07 
   25800    893.02626    6658206.1    6724.9433    48.731617    2.3577398    154656.64    156770.22 
   25900    843.30025    6659655.6    6724.9433    48.731617    2.3577398     154710.3    156706.19 
   26000    879.03344    6659896.3    6724.9433    48.731617    2.3577398    154704.36    156784.83 
   26100    911.35773    6663449.6    6724.9433    48.731617    2.3577398    154777.47    156934.44 
   26200    930.73929    6664874.4    6724.9433    48.731617    2.3577398    154804.02    157006.86 
   26300    889.90042    6664555.6    6724.9433    48.731617    2.3577398    154811.33    156917.51 
   26400    867.67076    6660272.6    6724.9433    48.731617    2.3577398    154717.38    156770.95 
   26500    891.87368    6656044.7    6724.9433    48.731617    2.3577398    154605.33    156716.18 
   26600    906.59087    6658298.7    6724.9433    48.731617    2.3577398    154653.48    156799.17 
   26700    899.54255    6665232.1    6724.9433    48.731617    2.3577398    154824.46    156953.46 
   26800    949.47844    6663250.4    6724.9433    48.731617    2.3577398    154757.26    157004.45 
   26900    903.24319    6662412.7    6724.9433    48.731617    2.3577398    154754.54     156892.3 
   27000     881.9598    6657762.4    6724.9433    48.731617    2.3577398    154651.55    156738.94 
   27100    885.76465    6656632.6    6724.9433    48.731617    2.3577398    154621.16    156717.56 
   27200    905.17089    6660391.4    6724.9433    48.731617    2.3577398     154706.2    156848.52 
   27300    938.46196    6663325.8    6724.9433    48.731617    2.3577398    154761.94    156983.06 
   27400    931.23647    6663816.2    6724.9433    48.731617    2.3577398    154778.25    156982.27 
   27500    885.74571    6662044.8    6724.9433    48.731617    2.3577398    154753.13    156849.48 
   27600    905.22638    6655744.4    6724.9433    48.731617    2.3577398    154591.25    156733.71 
   27700    839.71622    6661426.1    6724.9433    48.731617    2.3577398    154756.23    156743.64 
   27800    943.23124    6658074.2    6724.9433    48.731617    2.3577398    154634.23    156866.63 
   27900    923.88129    6664123.5    6724.9433    48.731617    2.3577398    154788.25    156974.86 
   28000    900.61648    6665603.7    6724.9433    48.731617    2.3577398       154832    156963.54 
   28100    915.69535    6659812.7    6724.9433    48.731617    2.3577398    154686.66     156853.9 
   28200    891.26431    6657256.1    6724.9433    48.731617    2.3577398    154634.59       156744 
   28300    859.61044    6659312.8    6724.9433    48.731617    2.3577398    154695.44    156729.93 
   28400    904.42153    6660439.1    6724.9433    48.731617    2.3577398     154706.1    156846.65 
   28500    952.23473    6661869.3    6724.9433    48.731617    2.3577398    154723.32    156977.04 
   28600      923.755    6664575.9    6724.9433    48.731617    2.3577398    154798.96    156985.27 
   28700    896.94053    6662281.9    6724.9433    48.731617    2.3577398    154755.29    156878.14 
   28800    866.30696    6659415.5    6724.9433    48.731617    2.3577398    154696.02    156746.37 
   28900    877.18419    6657410.1    6724.9433    48.731617    2.3577398     154645.2    156721.29 
   29000    892.84828    6660194.7    6724.9433    48.731617    2.3577398     154704.6    156817.76 
   29100     919.8937    6663800.6    6724.9433    48.731617    2.3577398    154780.78    156957.95 
   29200     928.9172    6664935.9    6724.9433    48.731617    2.3577398    154805.53    157004.06 
   29300    926.43801    6660569.5    6724.9433    48.731617    2.3577398    154700.69    156893.35 
   29400    859.92982    6660010.8    6724.9433    48.731617    2.3577398    154713.27    156748.52 
   29500    884.63827    6656819.2    6724.9433    48.731617    2.3577398    154626.68    156720.41 
   29600    898.44006    6659906.2    6724.9433    48.731617    2.3577398    154696.13    156822.52 
   29700    954.85977    6661432.5    6724.9433    48.731617    2.3577398    154710.65    156970.58 
   29800    936.59109      6664343    6724.9433    48.731617    2.3577398    154788.77    157005.46 
   29900    905.13483    6661854.6    6724.9433    48.731617    2.3577398    154740.01    156882.25 
   30000    842.41416    6661051.1    6724.9433    48.731617    2.3577398    154745.14    156738.94 
   30100    883.99229    6656688.1    6724.9433    48.731617    2.3577398    154622.44    156714.64 
   30200    902.03336    6659711.8    6724.9433    48.731617    2.3577398    154689.39    156824.29 
   30300    923.47793    6663795.8    6724.9433    48.731617    2.3577398     154780.7    156966.35 
   30400    966.47774    6661449.4    6724.9433    48.731617    2.3577398    154707.27    156994.69 
   30500     899.3182    6661920.2    6724.9433    48.731617    2.3577398    154744.59    156873.06 
   30600    868.80088    6659133.6    6724.9433    48.731617    2.3577398    154689.35    156745.59 
   30700    872.07536    6658166.3    6724.9433    48.731617    2.3577398    154664.25    156728.25 
   30800    890.15931    6661231.4    6724.9433    48.731617    2.3577398    154731.84    156838.63 
   30900    950.16048    6661771.1    6724.9433    48.731617    2.3577398    154721.42    156970.23 
   31000     953.3867    6661998.8    6724.9433    48.731617    2.3577398    154725.21    156981.65 
   31100    903.20321    6661110.9    6724.9433    48.731617    2.3577398    154723.43     156861.1 
   31200    871.98376    6659168.6    6724.9433    48.731617    2.3577398    154688.83    156752.61 
   31300    868.63924    6659044.5    6724.9433    48.731617    2.3577398    154687.62    156743.48 
   31400    896.56088    6661234.5    6724.9433    48.731617    2.3577398    154729.86    156851.81 
   31500    931.40791    6663087.3    6724.9433    48.731617    2.3577398     154758.7    156963.12 
   31600    954.33014    6661020.1    6724.9433    48.731617    2.3577398    154700.09    156958.77 
   31700    890.17618    6661468.2    6724.9433    48.731617    2.3577398    154737.57    156844.41 
   31800    881.26545    6658850.3    6724.9433    48.731617    2.3577398    154676.73    156762.48 
   31900    853.15041    6661504.8    6724.9433    48.731617    2.3577398    154752.34    156771.55 
   32000    877.72198    6663609.3    6724.9433    48.731617    2.3577398    154794.42    156871.78 
   32100    933.73137    6662729.6    6724.9433    48.731617    2.3577398    154750.06    156959.98 
   32200    890.50766    6665045.6    6724.9433    48.731617    2.3577398    154824.49    156932.11 
   32300    873.32395    6662058.4    6724.9433    48.731617    2.3577398    154758.59    156825.54 
   32400    868.47513    6659444.4    6724.9433    48.731617    2.3577398    154695.68    156751.16 
   32500     897.6447    6658676.9    6724.9433    48.731617    2.3577398       154666    156790.51 
   32600    926.98577    6660937.6    6724.9433    48.731617    2.3577398    154709.49    156903.44 
   32700    938.01542    6662813.3    6724.9433    48.731617    2.3577398     154751.9    156971.96 
   32800    887.13085    6664308.8    6724.9433    48.731617    2.3577398    154806.66    156906.29 
   32900    861.24923    6661450.8    6724.9433    48.731617    2.3577398    154749.07    156787.45 
   33000    877.22183      6658380    6724.9433    48.731617    2.3577398     154665.6    156741.78 
   33100    911.27653    6658181.9    6724.9433    48.731617    2.3577398    154650.13    156806.91 
   33200    935.83084    6661776.3    6724.9433    48.731617    2.3577398    154725.58    156940.47 
   33300    923.64748    6664492.9    6724.9433    48.731617    2.3577398    154798.06    156984.12 
   33400    931.52446    6660248.6    6724.9433    48.731617    2.3577398    154691.73    156896.43 
   33500    871.69257    6659953.6    6724.9433    48.731617    2.3577398    154705.64    156768.73 
   33600    829.23423    6661207.5    6724.9433    48.731617    2.3577398    154754.27    156716.87 
   33700    870.08457    6661842.9    6724.9433    48.731617    2.3577398    154753.57    156812.85 
   33800    944.52614    6661647.8    6724.9433    48.731617    2.3577398    154720.05    156955.52 
   33900    934.08263    6664600.8    6724.9433    48.731617    2.3577398    154797.92    157008.67 
   34000    930.53097    6660862.1    6724.9433    48.731617    2.3577398    154706.72    156909.06 
   34100    857.47431    6660278.3    6724.9433    48.731617    2.3577398    154721.37    156750.81 
   34200      849.161    6658913.6    6724.9433    48.731617    2.3577398    154690.63    156700.39 
   34300    889.89916    6659750.9    6724.9433    48.731617    2.3577398    154696.73    156802.91 
   34400    936.63079    6662375.3    6724.9433    48.731617    2.3577398    154740.13    156956.92 
   34500    966.05031    6662555.7    6724.9433    48.731617    2.3577398    154735.08    157021.49 
   34600    915.66157    6662137.3    6724.9433    48.731617    2.3577398    154743.57    156910.72 
   34700    876.41306    6658941.5    6724.9433    48.731617    2.3577398    154681.27    156755.54 
   34800    872.55898    6656909.6    6724.9433    48.731617    2.3577398    154632.91    156698.05 
   34900    868.64756    6661221.7    6724.9433    48.731617    2.3577398    154739.91     156795.8 
   35000    895.13913    6665412.4    6724.9433    48.731617    2.3577398    154830.45    156949.03 
   35100    926.10377    6665780.7    6724.9433    48.731617    2.3577398     154826.2    157018.07 
   35200    941.52162    6660284.1    6724.9433    48.731617    2.3577398    154688.67    156917.03 
   35300    905.30877    6656614.5    6724.9433    48.731617    2.3577398    154614.33    156756.98 
   35400    864.85529    6657634.8    6724.9433    48.731617    2.3577398    154654.31    156701.21 
   35500    876.49363    6660274.5    6724.9433    48.731617    2.3577398    154713.52    156787.97 
   35600    948.83756    6660773.2    6724.9433    48.731617    2.3577398    154698.08    156943.75 
   35700    906.16876    6667219.3    6724.9433    48.731617    2.3577398    154870.55    157015.23 
   35800    886.26676    6665520.2    6724.9433    48.731617    2.3577398     154836.5    156934.09 
   35900    895.22158    6658036.2    6724.9433    48.731617    2.3577398     154652.9    156771.68 
   36000    867.20342    6657151.1    6724.9433    48.731617    2.3577398    154641.28    156693.75 
   36100    902.36782    6657333.8    6724.9433    48.731617    2.3577398    154630.86    156766.55 
   36200     884.7957    6665162.3    6724.9433    48.731617    2.3577398    154828.78    156922.88 
   36300    894.73647    6667876.8    6724.9433    48.731617    2.3577398    154890.52    157008.15 
   36400    912.51103    6663945.6    6724.9433    48.731617    2.3577398    154788.62    156948.31 
   36500    897.91761    6659413.4    6724.9433    48.731617    2.3577398    154684.83    156809.99 
   36600    860.35064    6658536.5    6724.9433    48.731617    2.3577398    154676.62    156712.87 
   36700    889.00304    6657930.8    6724.9433    48.731617    2.3577398    154652.66    156756.72 
   36800    898.24282    6662856.8    6724.9433    48.731617    2.3577398    154767.43    156893.35 
   36900    917.46413    6665108.8    6724.9433    48.731617    2.3577398    154815.43    156986.85 
   37000    903.98256    6665273.3    6724.9433    48.731617    2.3577398    154823.01    156962.52 
   37100    880.58936    6662135.8    6724.9433    48.731617    2.3577398    154757.67    156841.82 
   37200      879.972    6658621.6    6724.9433    48.731617    2.3577398    154670.82     156753.5 
   37300    875.90322    6658858.3    6724.9433    48.731617    2.3577398    154678.88    156751.94 
   37400    884.65558    6662001.6    6724.9433    48.731617    2.3577398    154752.58    156846.35 
   37500    937.55173    6661811.1    6724.9433    48.731617    2.3577398    154728.11    156947.07 
   37600    910.58089    6664475.5    6724.9433    48.731617    2.3577398     154800.6    156955.73 
   37700    861.97772    6664769.5    6724.9433    48.731617    2.3577398    154827.62    156867.72 
   37800    902.59086    6658156.4    6724.9433    48.731617    2.3577398    154652.36    156788.58 
   37900    879.51986    6659837.4    6724.9433    48.731617    2.3577398     154700.2    156781.81 
   38000    888.58344    6661502.3    6724.9433    48.731617    2.3577398     154737.9    156840.97 
   38100    926.11819    6661052.5    6724.9433    48.731617    2.3577398    154712.54    156904.44 
   38200     893.8674    6664395.9    6724.9433    48.731617    2.3577398    154806.94    156922.51 
   38300    887.01933    6662611.9    6724.9433    48.731617    2.3577398    154766.35    156865.71 
   38400    881.90888    6660979.6    6724.9433    48.731617    2.3577398    154728.78    156816.05 
   38500    882.23271    6660745.5    6724.9433    48.731617    2.3577398    154722.77    156810.81 
   38600    894.01705    6661138.5    6724.9433    48.731617    2.3577398    154727.82    156843.75 
   38700    911.84849    6661350.5    6724.9433    48.731617    2.3577398    154725.69    156883.82 
   38800    888.61524    6663875.2    6724.9433    48.731617    2.3577398    154795.98    156899.12 
   38900    909.76198    6661372.6    6724.9433    48.731617    2.3577398    154726.44    156879.63 
   39000    847.15471    6664844.7    6724.9433    48.731617    2.3577398    154835.25    156840.26 
   39100    889.99108    6660689.9    6724.9433    48.731617    2.3577398    154718.87    156825.27 
   39200    896.34286    6660521.8    6724.9433    48.731617    2.3577398     154711.9    156833.34 
   39300    913.73224    6659646.3    6724.9433    48.731617    2.3577398    154685.31     156847.9 
   39400    918.39511    6660120.1    6724.9433    48.731617    2.3577398    154693.09    156866.71 
   39500    912.56194      6661352    6724.9433    48.731617    2.3577398    154725.34    156885.15 
   39600    865.07437    6665027.9    6724.9433    48.731617    2.3577398    154833.76    156881.18 
   39700    876.10216      6663152    6724.9433    48.731617    2.3577398    154783.72    156857.25 
   39800    883.39778    6661659.9    6724.9433    48.731617    2.3577398    154744.23    156835.02 
   39900    889.11394    6660420.3    6724.9433    48.731617    2.3577398    154711.98     156816.3 
   40000    879.55461    6661572.2    6724.9433    48.731617    2.3577398    154745.14    156826.84 
   40100     872.6533    6663877.4    6724.9433    48.731617    2.3577398     154802.7    156868.06 
   40200    917.59175    6662553.6    6724.9433    48.731617    2.3577398    154752.85    156924.57 
   40300    911.20205    6662341.9    6724.9433    48.731617    2.3577398    154750.39    156906.99 
   40400    883.43929      6662039    6724.9433    48.731617    2.3577398    154753.08    156843.98 
   40500    883.67642    6659641.8    6724.9433    48.731617    2.3577398    154695.07    156786.52 
   40600    903.34887    6657806.7    6724.9433    48.731617    2.3577398     154643.8    156781.81 
   40700    904.32853      6660213    6724.9433    48.731617    2.3577398    154701.42    156841.75 
   40800    887.82203    6664766.7    6724.9433    48.731617    2.3577398    154818.51    156919.77 
   40900    925.13813    6663271.1    6724.9433    48.731617    2.3577398    154767.17    156956.75 
   41000    906.08983    6662475.9    6724.9433    48.731617    2.3577398    154755.42    156899.92 
   41100    894.08467    6659093.9    6724.9433    48.731617    2.3577398    154678.17    156794.26 
   41200    895.84136    6657034.8    6724.9433    48.731617    2.3577398    154627.92    156748.17 
   41300    869.69069    6660717.9    6724.9433    48.731617    2.3577398    154726.76    156785.11 
   41400    912.90903    6661908.9    6724.9433    48.731617    2.3577398     154738.9    156899.54 
   41500     921.8659    6664968.9    6724.9433    48.731617    2.3577398    154808.96     156990.8 
   41600    955.24675    6660830.5    6724.9433    48.731617    2.3577398    154696.88    156957.72 
   41700    929.17775    6657401.2    6724.9433    48.731617    2.3577398    154622.94    156822.08 
   41800    870.43222    6657970.6    6724.9433    48.731617    2.3577398    154659.07    156719.18 
   41900    886.04288    6657586.5    6724.9433    48.731617    2.3577398    154645.21    156742.26 
   42000    923.32719    6659605.1    6724.9433    48.731617    2.3577398    154678.57    156863.87 
   42100     926.6095    6664519.9    6724.9433    48.731617    2.3577398    154796.95    156990.02 
   42200    919.22367    6665308.9    6724.9433    48.731617    2.3577398    154818.65    156994.23 
   42300     882.8484      6663018    6724.9433    48.731617    2.3577398       154777    156866.49 
   42400    858.53743      6658820    6724.9433    48.731617    2.3577398    154684.24    156716.19 
   42500    876.87121    6656590.9    6724.9433    48.731617    2.3577398    154623.92    156699.26 
   42600     913.0399    6659609.5    6724.9433    48.731617    2.3577398    154683.34    156844.29 
   42700    934.86951    6664064.6    6724.9433    48.731617    2.3577398    154782.96    156995.57 
   42800    933.85246    6665093.6    6724.9433    48.731617    2.3577398    154807.49     157017.7 
   42900    912.82403    6661151.3    6724.9433    48.731617    2.3577398    154720.09    156880.53 
   43000    893.43753    6656256.2    6724.9433    48.731617    2.3577398    154608.91    156723.46 
   43100    845.58764    6658805.9    6724.9433    48.731617    2.3577398    154689.73    156691.03 
   43200    887.12632    6660638.7    6724.9433    48.731617    2.3577398    154718.29    156817.91 
   43300    934.72375      6664098    6724.9433    48.731617    2.3577398    154782.83     156995.1 
   43400     935.4181    6665700.1    6724.9433    48.731617    2.3577398    154821.45    157035.36 
   43500    889.39676    6663639.6    6724.9433    48.731617    2.3577398    154790.05    156895.05 
   43600    899.72387    6656108.7    6724.9433    48.731617    2.3577398    154602.92    156732.35 
   43700    871.87642    6656322.2    6724.9433    48.731617    2.3577398    154619.15    156682.67 
   43800    899.97428    6658481.2    6724.9433    48.731617    2.3577398    154660.47    156790.49 
   43900    959.96051    6660659.6    6724.9433    48.731617    2.3577398    154689.92    156961.92 
   44000    928.31685      6666324    6724.9433    48.731617    2.3577398    154841.13    157038.23 
   44100    961.84466    6659514.9    6724.9433    48.731617    2.3577398    154662.27    156938.73 
   44200    873.86793    6659585.2    6724.9433    48.731617    2.3577398    154697.63    156765.87 
   44300    847.37285    6658447.8    6724.9433    48.731617    2.3577398     154680.9    156686.43 
   44400    905.37858    6657007.7    6724.9433    48.731617    2.3577398    154622.83    156765.65 
   44500    929.09629    6661467.6    6724.9433    48.731617    2.3577398    154721.81    156920.76 
   44600    954.25047    6663240.3    6724.9433    48.731617    2.3577398     154754.6    157013.09 
   44700    940.05958    6662252.5    6724.9433    48.731617    2.3577398    154736.21     156961.1 
   44800    909.48546    6658548.5    6724.9433    48.731617    2.3577398     154658.7    156811.23 
   44900    823.58859      6661856    6724.9433    48.731617    2.3577398    154772.94    156722.17 
   45000    895.55814    6657515.5    6724.9433    48.731617    2.3577398    154638.61    156758.18 
   45100    878.45695    6663992.3    6724.9433    48.731617    2.3577398    154804.02    156883.12 
   45200    905.93162    6665403.1    6724.9433    48.731617    2.3577398    154825.59    156969.71 
   45300    920.22877    6663539.3    6724.9433    48.731617    2.3577398    154775.52    156953.49 
   45400    873.35332      6663414    6724.9433    48.731617    2.3577398    154790.18     156857.2 
   45500     884.0415    6658791.7    6724.9433    48.731617    2.3577398    154676.18     156768.5 
   45600    865.11253    6660053.9    6724.9433    48.731617    2.3577398    154712.29    156759.81 
   45700    879.70958    6662259.1    6724.9433    48.731617    2.3577398    154761.12    156843.18 
   45800    911.12898    6663227.4    6724.9433    48.731617    2.3577398    154770.99    156927.41 
   45900    920.54607    6662831.9    6724.9433    48.731617    2.3577398    154759.34    156938.05 
   46000    907.58341    6661424.1    6724.9433    48.731617    2.3577398    154729.46     156877.5 
   46100    890.99846    6660161.3    6724.9433    48.731617    2.3577398    154705.33    156814.11 
   46200    890.85987    6659111.2    6724.9433    48.731617    2.3577398    154679.07    156787.53 
   46300    892.47187    6660113.5    6724.9433    48.731617    2.3577398    154704.68    156816.95 
   46400    917.85485      6660973    6724.9433    48.731617    2.3577398    154714.25     156886.6 
   46500    872.52466    6666358.4    6724.9433    48.731617    2.3577398    154862.82    156927.88 
   46600    897.15284    6663075.8    6724.9433    48.731617    2.3577398    154772.71    156896.05 
   46700    879.44823    6662011.6    6724.9433    48.731617    2.3577398    154754.05    156835.49 
   46800    886.70775    6660196.6    6724.9433    48.731617    2.3577398    154708.01    156806.63 
   46900    895.69066    6660310.4    6724.9433    48.731617    2.3577398    154706.02    156825.91 
   47000    889.93432    6662068.4    6724.9433    48.731617    2.3577398    154751.84     156858.1 
   47100    912.33345    6661623.2    6724.9433    48.731617    2.3577398    154731.67    156890.94 
   47200    942.57347    6659195.9    6724.9433    48.731617    2.3577398    154661.04    156891.89 
   47300    891.45541    6661371.2    6724.9433    48.731617    2.3577398    154734.95    156844.81 
   47400    892.33223    6660035.6    6724.9433    48.731617    2.3577398     154700.1    156812.04 
   47500    872.27631      6662151    6724.9433    48.731617    2.3577398     154761.3    156825.77 
   47600    906.07032    6661710.3    6724.9433    48.731617    2.3577398    154736.97    156881.42 
   47700    936.53402    6660090.6    6724.9433    48.731617    2.3577398    154685.13    156901.68 
   47800    907.52913    6661087.2    6724.9433    48.731617    2.3577398    154721.34    156869.24 
   47900    939.09027    6656909.7    6724.9433    48.731617    2.3577398     154607.7    156830.31 
   48000    865.37239    6662565.3    6724.9433    48.731617    2.3577398    154773.35    156821.48 
   48100    944.60608    6656822.6    6724.9433    48.731617    2.3577398    154604.04     156839.7 
   48200    863.18523    6664906.7    6724.9433    48.731617    2.3577398    154831.64     156874.6 
   48300    912.63096      6661787    6724.9433    48.731617    2.3577398    154736.16    156896.14 
   48400    898.16074    6662057.9    6724.9433    48.731617    2.3577398    154748.87     156874.6 
   48500     875.8139    6661951.8    6724.9433    48.731617    2.3577398    154754.72    156827.56 
   48600    885.28217    6660966.5    6724.9433    48.731617    2.3577398    154726.49    156821.74 
   48700    911.60806      6660203    6724.9433    48.731617    2.3577398    154697.39    156854.95 
   48800    895.57527    6662766.6    6724.9433    48.731617    2.3577398    154766.47    156886.09 
   48900    924.59345    6660443.7    6724.9433    48.731617    2.3577398    154697.92    156886.22 
   49000    901.52919    6661115.2    6724.9433    48.731617    2.3577398    154725.33    156859.03 
   49100    905.69514    6659922.1    6724.9433    48.731617    2.3577398     154693.9    156837.47 
   49200    886.94435      6661031    6724.9433    48.731617    2.3577398    154728.57    156827.76 
   49300    905.38436      6660332    6724.9433    48.731617    2.3577398    154702.97     156845.8 
   49400    885.21124    6663044.6    6724.9433    48.731617    2.3577398    154778.04    156873.12 
   49500    881.65315    6663620.9    6724.9433    48.731617    2.3577398    154791.98    156878.65 
   49600    895.68334    6661664.9    6724.9433    48.731617    2.3577398    154739.64    156859.51 
   49700    886.19153    6661681.5    6724.9433    48.731617    2.3577398    154743.62    156841.03 
   49800    903.42712    6660624.1    6724.9433    48.731617    2.3577398    154711.16    156849.36 
   49900    908.94683    6660898.4    6724.9433    48.731617    2.3577398    154715.26    156866.52 
   50000    913.64521    6660290.7    6724.9433    48.731617    2.3577398    154698.28    156860.66 
   50100     910.9917    6660009.5    6724.9433    48.731617    2.3577398    154693.51    156849.61 
   50200     889.8045    6661570.6    6724.9433    48.731617    2.3577398    154738.47    156844.42 
   50300    864.14286    6663999.9    6724.9433    48.731617    2.3577398    154809.27    156854.49 
   50400    899.12801    6661911.9    6724.9433    48.731617    2.3577398    154745.19    156873.21 
   50500     910.5731    6660717.2    6724.9433    48.731617    2.3577398    154711.27    156866.38 
   50600    875.65622    6662805.8    6724.9433    48.731617    2.3577398    154775.97    156848.44 
   50700    905.67187    6659817.4    6724.9433    48.731617    2.3577398    154691.03    156834.54 
   50800    894.11699    6660766.7    6724.9433    48.731617    2.3577398    154719.44     156835.6 
   50900    936.33084    6658760.7    6724.9433    48.731617    2.3577398    154652.46    156868.53 
   51000      887.909    6663741.4    6724.9433    48.731617    2.3577398    154793.22    156894.69 
   51100    932.62557    6659750.6    6724.9433    48.731617    2.3577398    154678.07    156885.38 
   51200    908.49437    6659776.6    6724.9433    48.731617    2.3577398    154689.81       156840 
   51300    872.26503    6661516.8    6724.9433    48.731617    2.3577398    154744.63    156809.07 
   51400    930.08704    6657414.5    6724.9433    48.731617    2.3577398    154624.13    156825.42 
   51500    894.02451    6662134.4    6724.9433    48.731617    2.3577398    154751.35     156867.3 
   51600    925.80288    6661384.8    6724.9433    48.731617    2.3577398    154720.87    156912.02 
   51700    907.98237    6662521.5    6724.9433    48.731617    2.3577398    154754.82     156903.8 
   51800    925.27698    6658964.5    6724.9433    48.731617    2.3577398    154662.57    156852.49 
   51900     893.3932    6658885.5    6724.9433    48.731617    2.3577398    154672.75     156787.2 
   52000    905.55682    6658035.7    6724.9433    48.731617    2.3577398    154647.59    156790.83 
   52100    895.02398    6661947.1    6724.9433    48.731617    2.3577398    154747.21    156865.52 
   52200    924.03838    6662410.5    6724.9433    48.731617    2.3577398    154747.32     156934.3 
   52300    904.96613    6663829.8    6724.9433    48.731617    2.3577398    154789.78    156931.62 
   52400     894.6866    6661712.8    6724.9433    48.731617    2.3577398    154741.46    156858.97 
   52500    868.81101    6660630.7    6724.9433    48.731617    2.3577398    154724.44    156780.71 
   52600    908.17226    6656648.4    6724.9433    48.731617    2.3577398       154613    156762.43 
   52700    887.62022    6660830.2    6724.9433    48.731617    2.3577398     154723.3    156824.08 
   52800    906.08433    6663749.3    6724.9433    48.731617    2.3577398    154786.28    156930.77 
   52900    951.67922    6662372.1    6724.9433    48.731617    2.3577398    154734.97    156987.37 
   53000    892.42771      6663790    6724.9433    48.731617    2.3577398    154792.72    156904.88 
   53100    887.49079    6659150.1    6724.9433    48.731617    2.3577398    154682.11    156782.59 
   53200    846.11705    6660109.5    6724.9433    48.731617    2.3577398    154720.33    156722.89 
   53300    869.16142    6660868.9    6724.9433    48.731617    2.3577398    154730.42    156787.52 
   53400    917.90411    6662224.1    6724.9433    48.731617    2.3577398    154745.09    156917.55 
   53500    958.30555    6662288.7    6724.9433    48.731617    2.3577398    154728.72     156996.8 
   53600    952.15027    6660665.8    6724.9433    48.731617    2.3577398    154693.74    156947.25 
   53700    913.87737      6658464    6724.9433    48.731617    2.3577398    154654.17    156817.11 
   53800     852.6498    6659076.4    6724.9433    48.731617    2.3577398    154693.97    156711.99 
   53900    891.50298    6657050.1    6724.9433    48.731617    2.3577398    154629.09    156739.07 
   54000     887.5673    6663157.6    6724.9433    48.731617    2.3577398    154780.65    156881.31 
   54100    903.37328    6667072.7    6724.9433    48.731617    2.3577398    154866.68    157004.75 
   54200    899.22164    6666375.3    6724.9433    48.731617    2.3577398     154851.9    156980.15 
   54300    864.64918    6663482.1    6724.9433    48.731617    2.3577398    154796.48     156842.9 
   54400    878.48697    6657693.6    6724.9433    48.731617    2.3577398    154649.04    156728.21 
   54500    840.93511    6660396.3    6724.9433    48.731617    2.3577398    154729.24    156719.53 
   54600    902.87911      6660319    6724.9433    48.731617    2.3577398    154703.54    156840.45 
   54700      907.896    6665665.9    6724.9433    48.731617    2.3577398    154831.22       156980 
   54800    940.90375    6663958.1    6724.9433    48.731617    2.3577398    154777.49    157004.38 
   54900    920.39235    6660701.5    6724.9433    48.731617    2.3577398    154706.47    156884.82 
   55000      890.476    6657288.1    6724.9433    48.731617    2.3577398    154635.93    156743.47 
   55100    867.86314    6657748.6    6724.9433    48.731617    2.3577398    154656.16    156710.19 
   55200    904.04095    6658905.8    6724.9433    48.731617    2.3577398    154669.43    156809.08 
   55300    900.20023    6664900.2    6724.9433    48.731617    2.3577398    154816.74    156947.31 
   55400    899.15472    6667361.7    6724.9433    48.731617    2.3577398    154875.99    157004.08 
   55500     921.9674    6662089.6    6724.9433    48.731617    2.3577398     154740.7    156922.78 
   55600     881.1277    6659924.6    6724.9433    48.731617    2.3577398    154702.86    156788.28 
   55700    870.82773    6657459.5    6724.9433    48.731617    2.3577398    154647.72    156708.76 
   55800     899.8929    6657359.6    6724.9433    48.731617    2.3577398    154631.81    156761.65 
   55900    893.53733    6663697.9    6724.9433    48.731617    2.3577398    154789.49    156904.28 
   56000    927.76447    6664885.6    6724.9433    48.731617    2.3577398    154805.53    157001.32 
   56100     892.8887    6665873.7    6724.9433    48.731617    2.3577398    154841.81    156955.06 
   56200    897.22289      6660445    6724.9433    48.731617    2.3577398    154708.95    156832.46 
   56300    865.39269    6658912.7    6724.9433    48.731617    2.3577398    154685.56    156733.74 
   56400    879.06594    6657794.9    6724.9433    48.731617    2.3577398    154652.42    156732.96 
   56500    889.29366    6661896.8    6724.9433    48.731617    2.3577398    154748.33    156853.08 
   56600    911.61908    6664908.2    6724.9433    48.731617    2.3577398    154811.46    156969.05 
   56700    932.43163      6663756    6724.9433    48.731617    2.3577398    154776.64    156983.48 
   56800    968.44173      6656874    6724.9433    48.731617    2.3577398    154594.53     156886.6 
   56900    874.96883    6659465.2    6724.9433    48.731617    2.3577398     154694.4    156765.24 
   57000    871.79455      6658344    6724.9433    48.731617    2.3577398    154669.23    156732.56 
   57100    893.92608    6659481.9    6724.9433    48.731617    2.3577398    154686.58    156802.29 
   57200    889.67716    6664697.3    6724.9433    48.731617    2.3577398    154815.81    156921.46 
   57300    886.40946    6667283.5    6724.9433    48.731617    2.3577398    154879.35    156977.27 
   57400    931.44133    6661780.4    6724.9433    48.731617    2.3577398    154730.79    156935.29 
   57500    898.08493    6660130.3    6724.9433    48.731617    2.3577398    154701.79    156827.35 
   57600    869.37986    6658628.1    6724.9433    48.731617    2.3577398    154676.18    156733.79 
   57700    885.64796    6658483.5    6724.9433    48.731617    2.3577398    154665.85    156761.97 
   57800    897.07529    6662147.6    6724.9433    48.731617    2.3577398    154751.59    156874.75 
   57900    896.95036    6665884.8    6724.9433    48.731617    2.3577398    154840.75    156963.62 
   58000    914.21962    6664016.1    6724.9433    48.731617    2.3577398     154789.6    156953.34 
   58100    893.32402    6662115.1    6724.9433    48.731617    2.3577398    154751.47    156865.76 
   58200    868.59949    6660160.4    6724.9433    48.731617    2.3577398    154713.46    156769.23 
   58300    856.72723    6660151.1    6724.9433    48.731617    2.3577398    154717.51    156745.18 
   58400    892.64107    6660811.7    6724.9433    48.731617    2.3577398    154720.14    156832.81 
   58500     879.1477    6665723.2    6724.9433    48.731617    2.3577398    154844.66    156925.39 
   58600    879.87056    6666719.3    6724.9433    48.731617    2.3577398    154868.03    156950.48 
   58700    903.80818    6662718.4    6724.9433    48.731617    2.3577398    154761.51    156900.61 
   58800    926.61705    6657341.4    6724.9433    48.731617    2.3577398    154623.66    156816.74 
   58900    888.15756      6658439    6724.9433    48.731617    2.3577398    154664.52    156766.58 
   59000    895.85703    6658836.1    6724.9433    48.731617    2.3577398    154670.48    156790.76 
   59100    926.24512    6659356.6    6724.9433    48.731617    2.3577398    154672.35    156864.56 
   59200    932.67704    6662075.8    6724.9433    48.731617    2.3577398    154734.68    156942.11 
   59300    891.70558    6665552.4    6724.9433    48.731617    2.3577398    154835.28    156945.74 
   59400    915.92138    6660413.7    6724.9433    48.731617    2.3577398    154701.96    156869.73 
   59500    890.63063    6658868.3    6724.9433    48.731617    2.3577398    154673.67    156781.58 
   59600    884.16022    6658827.2    6724.9433    48.731617    2.3577398    154674.03    156766.62 
   59700    869.77093    6662284.8    6724.9433    48.731617    2.3577398    154764.83    156823.37 
   59800    887.73314    6664260.8    6724.9433    48.731617    2.3577398     154805.4    156906.46 
   59900    933.51954    6662532.1    6724.9433    48.731617    2.3577398    154746.41    156955.83 
   60000    932.24556    6660816.6    6724.9433    48.731617    2.3577398    154704.67    156911.08 
   60100    872.45775    6661370.4    6724.9433    48.731617    2.3577398    154743.03    156807.93 
   60200    853.30652    6661018.6    6724.9433    48.731617    2.3577398    154740.48    156760.06 
   60300     901.2175    6658479.4    6724.9433    48.731617    2.3577398    154661.09    156794.05 
   60400    885.54957    6663431.9    6724.9433    48.731617    2.3577398    154786.36    156882.24 
   60500    952.51632    6660827.1    6724.9433    48.731617    2.3577398    154698.71    156953.09 
   60600    917.70902    6662814.1    6724.9433    48.731617    2.3577398    154757.16    156929.16 
   60700    916.57248    6659746.6    6724.9433    48.731617    2.3577398    154684.46    156853.77 
   60800    897.92812    6657697.3    6724.9433    48.731617    2.3577398    154642.01    156767.19 
   60900    882.24755    6658585.2    6724.9433    48.731617    2.3577398    154670.55    156758.62 
   61000    873.06974    6662974.1    6724.9433    48.731617    2.3577398    154778.83    156845.18 
   61100    903.64555    6664165.2    6724.9433    48.731617    2.3577398    154797.47    156936.19 
   61200    931.89158    6663134.4    6724.9433    48.731617    2.3577398    154761.79    156967.35 
   61300    883.09532    6664162.6    6724.9433    48.731617    2.3577398    154803.65    156893.73 
   61400    892.37833    6658761.5    6724.9433    48.731617    2.3577398    154669.66    156781.71 
   61500    853.70154    6660033.7    6724.9433    48.731617    2.3577398    154717.21    156737.72 
   61600    856.38762    6662101.8    6724.9433    48.731617    2.3577398    154765.88    156792.75 
   61700    934.97079      6661042    6724.9433    48.731617    2.3577398    154709.99    156922.85 
   61800    956.36978    6661798.4    6724.9433    48.731617    2.3577398    154718.24    156981.74 
   61900    922.02555    6661889.7    6724.9433    48.731617    2.3577398    154735.76    156917.97 
   62000    900.15434    6659128.3    6724.9433    48.731617    2.3577398    154676.31    156806.77 
   62100    915.00072    6655507.5    6724.9433    48.731617    2.3577398    154583.07    156748.66 
   62200    858.45185    6661146.9    6724.9433    48.731617    2.3577398    154741.65     156773.4 
   62300    918.01192    6661222.6    6724.9433    48.731617    2.3577398    154720.75    156893.46 
   62400    941.84588    6662834.4    6724.9433    48.731617    2.3577398    154749.32    156978.44 
   62500     957.5594    6660041.4    6724.9433    48.731617    2.3577398    154677.28     156943.6 
   62600    882.35835    6661353.7    6724.9433    48.731617    2.3577398    154739.04    156827.37 
   62700    851.31252    6660691.3    6724.9433    48.731617    2.3577398    154733.49    156748.35 
   62800    914.23097    6656435.6    6724.9433    48.731617    2.3577398    154605.79    156769.56 
   62900    894.28916    6662026.8    6724.9433    48.731617    2.3577398     154749.5    156866.07 
   63000    922.78646    6663847.2    6724.9433    48.731617    2.3577398    154782.13    156966.14 
   63100    935.38618    6662688.7    6724.9433    48.731617    2.3577398    154748.39    156962.23 
   63200    910.84332    6660138.6    6724.9433    48.731617    2.3577398    154696.87    156852.62 
   63300    910.18717    6656277.7    6724.9433    48.731617    2.3577398    154604.21    156758.41 
   63400      863.498    6659650.8    6724.9433    48.731617    2.3577398    154702.92    156746.61 
   63500    894.86683    6661161.9    6724.9433    48.731617    2.3577398     154727.7    156845.64 
   63600    915.35274    6664019.1    6724.9433    48.731617    2.3577398    154788.76    156955.19 
   63700    931.58474    6663053.2    6724.9433    48.731617    2.3577398    154760.92    156965.76 
   63800    892.79164    6662331.2    6724.9433    48.731617    2.3577398    154756.85    156869.88 
   63900    884.38771    6658768.3    6724.9433    48.731617    2.3577398    154673.67     156766.8 
   64000    861.45995    6659662.3    6724.9433    48.731617    2.3577398    154704.11    156742.98 
   64100    883.70894    6661562.4    6724.9433    48.731617    2.3577398    154741.43    156832.96 
   64200     936.6637    6662311.3    6724.9433    48.731617    2.3577398    154739.65    156956.51 
   64300    951.82286    6661612.3    6724.9433    48.731617    2.3577398    154716.87    156969.61 
   64400    903.49388    6661300.1    6724.9433    48.731617    2.3577398    154727.67    156866.02 
   64500    858.07816    6660502.4    6724.9433    48.731617    2.3577398    154725.04    156755.91 
   64600    867.56324    6658765.4    6724.9433    48.731617    2.3577398    154680.87    156734.19 
   64700    904.54189    6659674.2    6724.9433    48.731617    2.3577398    154687.87    156828.71 
   64800    878.90271      6667486    6724.9433    48.731617    2.3577398    154887.31    156967.46 
   64900     925.6138    6665161.5    6724.9433    48.731617    2.3577398    154811.74    157002.45 
   65000    920.63694    6660661.2    6724.9433    48.731617    2.3577398     154705.8    156884.73 
   65100    879.30478    6657810.2    6724.9433    48.731617    2.3577398    154652.39     156733.5 
   65200    866.37066    6657777.3    6724.9433    48.731617    2.3577398    154656.98    156707.48 
   65300    874.38536    6661474.4    6724.9433    48.731617    2.3577398     154742.9    156812.36 
   65400    927.14576    6663778.8    6724.9433    48.731617    2.3577398    154779.21    156973.55 
   65500    939.04822    6665052.1    6724.9433    48.731617    2.3577398    154805.09    157027.59 
   65600    908.63629      6662635    6724.9433    48.731617    2.3577398     154758.8    156909.32 
   65700    864.26426    6659521.3    6724.9433    48.731617    2.3577398    154699.67    156745.18 
   65800     847.0718    6658543.5    6724.9433    48.731617    2.3577398    154682.12    156686.94 
   65900    869.67787    6660647.9    6724.9433    48.731617    2.3577398    154725.05    156783.37 
   66000     910.7285    6664400.7    6724.9433    48.731617    2.3577398    154800.55    156956.03 
   66100    913.98756    6666998.3    6724.9433    48.731617    2.3577398    154861.94    157025.13 
   66200    897.47853    6664776.8    6724.9433    48.731617    2.3577398    154813.81    156937.93 
   66300    879.60452    6659782.9    6724.9433    48.731617    2.3577398    154700.43    156782.24 
   66400    856.80255    6657748.8    6724.9433    48.731617    2.3577398    154659.94    156687.79 
   66500    876.62919    6658741.4    6724.9433    48.731617    2.3577398    154675.69    156750.47 
   66600    934.47747    6660564.8    6724.9433    48.731617    2.3577398    154697.42     156909.1 
   66700     951.0087      6663424    6724.9433    48.731617    2.3577398    154761.39     157012.2 
   66800    889.92075    6666379.9    6724.9433    48.731617    2.3577398    154857.94    156964.17 
   66900    895.86501    6660825.8    6724.9433    48.731617    2.3577398    154719.19    156839.49 
   67000    892.36234    6656762.5    6724.9433    48.731617    2.3577398    154621.07    156733.08 
   67100    877.89189    6657887.7    6724.9433    48.731617    2.3577398    154654.98    156732.74 
   67200    915.82084    6659371.4    6724.9433    48.731617    2.3577398    154675.46       156843 
   67300    930.95326      6662995    6724.9433    48.731617    2.3577398    154758.92    156962.27 
   67400    922.57609    6664439.7    6724.9433    48.731617    2.3577398    154795.51    156979.03 
   67500    919.73009    6661035.8    6724.9433    48.731617    2.3577398    154715.82    156892.61 
   67600    868.79858    6660438.3    6724.9433    48.731617    2.3577398     154719.3    156775.55 
   67700    874.21176    6658231.2    6724.9433    48.731617    2.3577398    154665.75     156734.8 
   67800    884.53978    6660013.9    6724.9433    48.731617    2.3577398     154703.8     156797.3 
   67900    918.96026      6661713    6724.9433    48.731617    2.3577398    154731.81    156906.78 
   68000    904.54089    6665647.5    6724.9433    48.731617    2.3577398    154832.74    156973.57 
   68100    884.32605    6665700.9    6724.9433    48.731617    2.3577398    154841.87    156934.86 
   68200    918.65847    6658437.9    6724.9433    48.731617    2.3577398    154652.67    156826.92 
   68300    865.26525    6659555.5    6724.9433    48.731617    2.3577398    154700.68    156748.56 
   68400    858.04077    6661153.5    6724.9433    48.731617    2.3577398     154741.2    156771.98 
   68500     874.6762    6663460.4    6724.9433    48.731617    2.3577398    154791.37    156861.53 
   68600    883.33791    6666177.6    6724.9433    48.731617    2.3577398    154853.64    156944.29 
   68700    923.65553    6663131.1    6724.9433    48.731617    2.3577398    154765.08    156951.15 
   68800    884.08552    6663028.1    6724.9433    48.731617    2.3577398    154777.18     156869.6 
   68900    921.41118    6656551.9    6724.9433    48.731617    2.3577398    154605.95    156786.71 
   69000    892.30213    6658027.3    6724.9433    48.731617    2.3577398    154653.45    156765.32 
   69100    909.22662    6658680.9    6724.9433    48.731617    2.3577398    154662.56    156814.49 
   69200    912.29023    6662120.6    6724.9433    48.731617    2.3577398     154745.4    156904.57 
   69300    919.67621      6663381    6724.9433    48.731617    2.3577398    154772.18    156948.84 
   69400    900.81381    6663654.1    6724.9433    48.731617    2.3577398    154786.23    156918.24 
   69500    907.49253    6659505.4    6724.9433    48.731617    2.3577398    154682.16    156829.98 
   69600    891.25253    6658013.6    6724.9433    48.731617    2.3577398    154653.57    156762.95 
   69700     879.4656    6659266.4    6724.9433    48.731617    2.3577398    154687.67    156769.16 
   69800    891.98879    6662089.2    6724.9433    48.731617    2.3577398    154751.56    156862.68 
   69900    936.82562      6662008    6724.9433    48.731617    2.3577398    154731.93    156949.18 
   70000    966.85957    6659985.6    6724.9433    48.731617    2.3577398    154671.33    156959.66 
   70100     950.1542    6658284.3    6724.9433    48.731617    2.3577398    154637.59    156886.38 
   70200    892.70234    6658611.4    6724.9433    48.731617    2.3577398    154666.39    156779.21 
   70300    882.29197    6657581.3    6724.9433    48.731617    2.3577398    154646.21    156734.39 
   70400    869.47792    6661172.4    6724.9433    48.731617    2.3577398    154737.75     156795.6 
   70500     916.3948    6662343.2    6724.9433    48.731617    2.3577398    154747.84    156916.73 
   70600    933.81489    6664072.6    6724.9433    48.731617    2.3577398    154783.74    156993.85 
   70700    920.54041      6662727    6724.9433    48.731617    2.3577398    154756.59    156935.29 
   70800    888.22849    6660311.3    6724.9433    48.731617    2.3577398    154709.66    156811.89 
   70900    898.73763    6655623.8    6724.9433    48.731617    2.3577398    154592.02    156719.12 
   71000    872.05559    6658992.3    6724.9433    48.731617    2.3577398    154684.08    156748.03 
   71100    913.40092    6660980.4    6724.9433    48.731617    2.3577398    154716.79     156878.6 
   71200    922.59918    6665137.5    6724.9433    48.731617    2.3577398     154813.8    156997.37 
   71300    886.22973    6667768.5    6724.9433    48.731617    2.3577398    154891.52    156989.02 
   71400    917.56307    6660421.4    6724.9433    48.731617    2.3577398    154701.24    156872.89 
   71500    864.92806    6658895.5    6724.9433    48.731617    2.3577398    154684.27    156731.35 
   71600    852.86534    6658984.3    6724.9433    48.731617    2.3577398    154690.63    156709.16 
   71700    909.72115    6658381.3    6724.9433    48.731617    2.3577398    154655.03    156808.12 
   71800    915.90802    6664244.1    6724.9433    48.731617    2.3577398    154793.43    156961.17 
   71900    885.73071    6668973.2    6724.9433    48.731617    2.3577398    154921.23    157017.55 
   72000    909.19968    6663523.8    6724.9433    48.731617    2.3577398    154779.69    156931.55 
   72100    890.98073    6658722.8    6724.9433    48.731617    2.3577398    154670.18    156778.92 
   72200    884.27095    6655957.7    6724.9433    48.731617    2.3577398    154605.66    156698.52 
   72300    887.82576    6658011.6    6724.9433    48.731617    2.3577398    154654.57    156755.85 
   72400    919.05372    6661870.9    6724.9433    48.731617    2.3577398    154735.44    156910.62 
   72500    919.95055    6666087.1    6724.9433    48.731617    2.3577398    154836.89     157014.2 
   72600    940.70846    6662837.3    6724.9433    48.731617    2.3577398    154749.61    156976.04 
   72700    861.82349    6662696.9    6724.9433    48.731617    2.3577398    154778.46    156818.19 
   72800      854.741    6658911.7    6724.9433    48.731617    2.3577398     154688.8    156711.77 
   72900    909.29227    6655586.7    6724.9433    48.731617    2.3577398    154586.46    156738.54 
   73000    896.05615    6661945.6    6724.9433    48.731617    2.3577398    154746.78    156867.54 
   73100    934.56862    6663830.8    6724.9433    48.731617    2.3577398    154776.12    156988.03 
   73200    930.23649    6663566.9    6724.9433    48.731617    2.3577398    154772.13    156973.77 
   73300    896.24081    6661100.8    6724.9433    48.731617    2.3577398    154725.14    156846.33 
   73400    881.51679    6657814.3    6724.9433    48.731617    2.3577398    154652.45     156738.8 
   73500    895.94619    6656714.8    6724.9433    48.731617    2.3577398    154619.67    156740.17 
   73600     893.1796    6661691.5    6724.9433    48.731617    2.3577398     154741.3    156855.24 
   73700    898.74589    6665519.8    6724.9433    48.731617    2.3577398     154831.2    156958.32 
   73800    907.94421      6664690    6724.9433    48.731617    2.3577398    154808.55    156957.44 
   73900    905.47943    6661154.6    6724.9433    48.731617    2.3577398    154722.96    156866.01 
   74000    890.55015    6658765.3    6724.9433    48.731617    2.3577398    154671.32    156779.04 
   74100    884.98246      6658544    6724.9433    48.731617    2.3577398     154667.5    156762.05 
   74200    905.26939    6659635.6    6724.9433    48.731617    2.3577398    154687.61    156830.17 
   74300     924.5529    6661910.9    6724.9433    48.731617    2.3577398     154734.4     156922.6 
   74400    944.93961    6661114.3    6724.9433    48.731617    2.3577398    154708.74    156945.19 
   74500     942.3323    6658411.7    6724.9433    48.731617    2.3577398     154642.9    156873.18 
   74600    894.38034    6658996.9    6724.9433    48.731617    2.3577398    154675.58    156792.37 
   74700    928.75794    6655859.8    6724.9433    48.731617    2.3577398    154584.82    156782.97 
   74800    910.34275    6659731.4    6724.9433    48.731617    2.3577398    154685.97    156840.54 
   74900    931.16021    6660983.1    6724.9433    48.731617    2.3577398    154708.67    156912.51 
   75000    901.81213    6663868.1    6724.9433    48.731617    2.3577398    154792.12    156926.49 
   75100     910.0691    6661212.8    6724.9433    48.731617    2.3577398     154721.8    156875.72 
   75200     881.4556    6660639.7    6724.9433    48.731617    2.3577398    154720.88    156807.07 
   75300    890.74356    6659028.6    6724.9433    48.731617    2.3577398    154677.42     156785.6 
   75400    905.77213    6660273.8    6724.9433    48.731617    2.3577398    154702.08    156845.82 
   75500    905.37802    6662906.2    6724.9433    48.731617    2.3577398    154766.16    156908.97 
   75600    918.94267    6662365.3    6724.9433    48.731617    2.3577398    154748.46    156923.38 
   75700    906.07629    6660715.1    6724.9433    48.731617    2.3577398    154712.54    156857.01 
[...]
  381700    891.02452    6661235.2    6724.9433    48.731617    2.3577398    154732.18    156841.02 
  381800    913.90326      6661198    6724.9433    48.731617    2.3577398    154720.88    156883.87 
  381900    914.37307    6660848.8    6724.9433    48.731617    2.3577398    154711.39     156875.5 
  382000    886.86295      6662437    6724.9433    48.731617    2.3577398    154761.33    156860.32 
  382100    891.71052    6659900.3    6724.9433    48.731617    2.3577398    154698.41    156808.88 
  382200    875.17027    6657283.3    6724.9433    48.731617    2.3577398    154641.19    156712.51 
  382300    867.83651    6658619.6    6724.9433    48.731617    2.3577398    154676.89    156730.85 
  382400    920.33632    6661151.2    6724.9433    48.731617    2.3577398    154718.16    156896.37 
  382500    924.83757    6661821.2    6724.9433    48.731617    2.3577398    154732.87    156921.74 
  382600    919.22787    6660667.6    6724.9433    48.731617    2.3577398    154705.69    156881.29 
  382700    895.63251    6658661.3    6724.9433    48.731617    2.3577398    154667.08    156786.83 
  382800    856.94422    6657584.2    6724.9433    48.731617    2.3577398    154655.52     156683.7 
  382900    857.95961    6657580.1    6724.9433    48.731617    2.3577398    154655.21     156685.8 
  383000    935.96366    6658883.2    6724.9433    48.731617    2.3577398    154656.89     156872.1 
  383100    918.08159    6662640.4    6724.9433    48.731617    2.3577398    154755.04    156927.93 
  383200    925.62367    6660150.7    6724.9433    48.731617    2.3577398    154691.36    156882.09 
  383300     905.2841      6657825    6724.9433    48.731617    2.3577398    154644.12    156786.71 
  383400    855.48086    6660469.1    6724.9433    48.731617    2.3577398    154725.88    156750.61 
  383500    900.76124    6662482.2    6724.9433    48.731617    2.3577398    154756.82    156888.71 
  383600    929.01401      6663761    6724.9433    48.731617    2.3577398    154777.52    156976.28 
  383700    914.71912    6662805.1    6724.9433    48.731617    2.3577398    154758.95    156923.87 
  383800    899.62733    6659562.2    6724.9433    48.731617    2.3577398    154686.36    156815.57 
  383900    875.19999    6659956.1    6724.9433    48.731617    2.3577398    154706.71    156778.11 
  384000    851.23746    6663123.4    6724.9433    48.731617    2.3577398    154792.52     156807.2 
  384100    873.95604    6662842.2    6724.9433    48.731617    2.3577398    154777.21    156845.66 
  384200    909.27608    6661128.4    6724.9433    48.731617    2.3577398     154722.5    156874.54 
  384300    919.03706    6660167.9    6724.9433    48.731617    2.3577398    154693.49    156868.63 
  384400    867.22914    6660081.7    6724.9433    48.731617    2.3577398    154711.53    156764.05 
  384500    852.08677      6657806    6724.9433    48.731617    2.3577398    154663.32       156680 
  384600    896.15763    6657683.7    6724.9433    48.731617    2.3577398    154642.31     156763.3 
  384700    911.08571    6661294.7    6724.9433    48.731617    2.3577398    154724.56    156880.88 
  384800    923.55041    6661329.4    6724.9433    48.731617    2.3577398    154721.35    156907.18 
  384900    913.66727    6660934.3    6724.9433    48.731617    2.3577398     154714.8    156877.24 
  385000    875.16163    6659935.4    6724.9433    48.731617    2.3577398    154704.59    156775.89 
  385100    858.35812    6656586.7    6724.9433    48.731617    2.3577398     154630.8    156662.33 
  385200    885.81789      6655588    6724.9433    48.731617    2.3577398    154596.46    156692.99 
  385300    881.73185    6663895.3    6724.9433    48.731617    2.3577398    154798.31    156885.16 
  385400    893.84589    6664629.4    6724.9433    48.731617    2.3577398    154813.49    156929.01 
  385500    918.03223    6661401.6    6724.9433    48.731617    2.3577398    154724.93     156897.7 
  385600    897.26118    6659212.5    6724.9433    48.731617    2.3577398    154679.96    156803.57 
  385700    883.98181    6657676.1    6724.9433    48.731617    2.3577398    154647.09    156739.27 
  385800    916.74626    6657419.8    6724.9433    48.731617    2.3577398    154629.94    156799.66 
  385900    941.29101    6662207.8    6724.9433    48.731617    2.3577398    154734.82    156962.63 
  386000    941.31804    6661623.8    6724.9433    48.731617    2.3577398    154720.29    156948.17 
  386100    893.83043    6661149.7    6724.9433    48.731617    2.3577398    154727.47    156842.96 
  386200    893.27579    6658734.3    6724.9433    48.731617    2.3577398    154668.62    156782.79 
  386300     878.5944    6660452.6    6724.9433    48.731617    2.3577398    154716.32    156795.74 
  386400     868.2306    6662994.4    6724.9433    48.731617    2.3577398    154782.87    156837.76 
  386500    891.74827    6661845.7    6724.9433    48.731617    2.3577398    154747.31    156857.87 
  386600    884.31998      6662788    6724.9433    48.731617    2.3577398    154771.46    156864.43 
  386700    900.01116    6660467.2    6724.9433    48.731617    2.3577398    154708.62    156838.73 
  386800    880.13467    6660129.8    6724.9433    48.731617    2.3577398    154708.99    156792.06 
  386900    888.24064    6657681.9    6724.9433    48.731617    2.3577398    154645.84    156748.09 
  387000    868.98059    6660868.3    6724.9433    48.731617    2.3577398    154730.56    156787.24 
  387100    890.39604    6664613.4    6724.9433    48.731617    2.3577398    154812.99    156920.35 
  387200    930.71879    6662101.1    6724.9433    48.731617    2.3577398    154736.58    156939.37 
  387300    897.21631    6661755.5    6724.9433    48.731617    2.3577398    154741.52    156865.02 
  387400    864.80115    6659548.9    6724.9433    48.731617    2.3577398    154699.06    156745.84 
  387500    863.96646    6658840.2    6724.9433    48.731617    2.3577398    154683.47    156728.28 
  387600    903.82326    6665014.3    6724.9433    48.731617    2.3577398    154817.77    156956.91 
  387700    916.22086    6665258.3    6724.9433    48.731617    2.3577398    154819.21    156987.69 
  387800    895.20734    6663012.4    6724.9433    48.731617    2.3577398    154773.57    156892.31 
  387900    904.48865    6658076.5    6724.9433    48.731617    2.3577398    154648.64    156789.35 
  388000    883.21309    6659267.4    6724.9433    48.731617    2.3577398    154685.96    156776.31 
  388100     885.4123    6663081.8    6724.9433    48.731617    2.3577398     154777.7    156873.27 
  388200    902.03672      6666753    6724.9433    48.731617    2.3577398    154860.29    156995.19 
  388300    908.87557    6664743.3    6724.9433    48.731617    2.3577398    154809.19    156960.28 
  388400    915.76384    6661157.1    6724.9433    48.731617    2.3577398    154720.05    156887.44 
  388500    895.03378    6660651.3    6724.9433    48.731617    2.3577398     154714.7    156833.04 
  388600    863.00648    6661833.8    6724.9433    48.731617    2.3577398    154756.33    156798.87 
  388700    891.87109    6661195.5    6724.9433    48.731617    2.3577398    154731.06    156841.91 
  388800    943.22009      6662306    6724.9433    48.731617    2.3577398    154738.12     156970.5 
  388900     917.4074    6665146.6    6724.9433    48.731617    2.3577398    154816.37    156987.65 
  389000     892.4225    6662234.3    6724.9433    48.731617    2.3577398    154755.72    156867.87 
  389100    884.23502    6659543.8    6724.9433    48.731617    2.3577398    154691.65    156784.42 
  389200    902.32689    6658567.4    6724.9433    48.731617    2.3577398    154660.22    156795.81 
  389300    890.97276    6661632.8    6724.9433    48.731617    2.3577398     154740.7    156849.42 
  389400    900.15809      6664106    6724.9433    48.731617    2.3577398    154798.14     156928.6 
  389500    967.37398    6664325.8    6724.9433    48.731617    2.3577398    154775.33    157064.88 
  389600    963.01695    6667486.1    6724.9433    48.731617    2.3577398    154855.08    157134.31 
  389700    947.64387    6662246.5    6724.9433    48.731617    2.3577398    154734.02    156976.87 
  389800    925.90458    6660263.5    6724.9433    48.731617    2.3577398    154693.14    156884.53 
  389900    895.40603    6660053.9    6724.9433    48.731617    2.3577398    154700.28    156819.49 
  390000    869.29122    6661232.4    6724.9433    48.731617    2.3577398    154738.74    156796.15 
  390100     897.2668    6659422.1    6724.9433    48.731617    2.3577398    154683.92    156807.53 
  390200    883.14053    6664943.6    6724.9433    48.731617    2.3577398    154824.41     156914.6 
  390300    920.94759    6665298.9    6724.9433    48.731617    2.3577398     154818.7    156998.37 
  390400    928.03685    6663279.2    6724.9433    48.731617    2.3577398    154766.12    156962.56 
  390500    856.83964    6661825.6    6724.9433    48.731617    2.3577398    154759.07    156787.01 
  390600    875.78803    6660287.8    6724.9433    48.731617    2.3577398    154713.36    156786.15 
  390700    892.57862    6661881.1    6724.9433    48.731617    2.3577398    154746.13    156858.65 
  390800    895.77112    6665283.2    6724.9433    48.731617    2.3577398    154826.37    156946.45 
  390900    908.23556    6663813.4    6724.9433    48.731617    2.3577398    154788.74    156938.32 
  391000    899.37882    6657334.1    6724.9433    48.731617    2.3577398    154632.54    156761.15 
  391100    889.12121    6656574.2    6724.9433    48.731617    2.3577398    154617.91    156722.25 
  391200    859.37064      6662219    6724.9433    48.731617    2.3577398    154767.41    156801.34 
  391300     939.7055    6659376.5    6724.9433    48.731617    2.3577398    154666.72    156890.78 
  391400    911.74942    6662391.3    6724.9433    48.731617    2.3577398    154751.56    156909.45 
  391500    928.31431    6660678.1    6724.9433    48.731617    2.3577398    154703.29    156900.39 
  391600    887.99032    6661691.7    6724.9433    48.731617    2.3577398       154743    156844.66 
  391700    824.95367    6658105.2    6724.9433    48.731617    2.3577398    154680.97    156633.44 
  391800    838.12692    6657362.9    6724.9433    48.731617    2.3577398    154657.61    156641.26 
  391900    881.01835    6659521.2    6724.9433    48.731617    2.3577398    154693.79    156778.95 
  392000    915.94894    6660790.5    6724.9433    48.731617    2.3577398    154710.97     156878.8 
  392100    890.74627    6664990.1    6724.9433    48.731617    2.3577398    154822.32     156930.5 
  392200    913.61321    6662381.9    6724.9433    48.731617    2.3577398    154750.55    156912.86 
  392300    889.98953    6657999.2    6724.9433    48.731617    2.3577398    154653.02    156759.41 
  392400    859.23778    6658796.8    6724.9433    48.731617    2.3577398    154684.23    156717.84 
  392500    882.69642    6660263.5    6724.9433    48.731617    2.3577398    154711.35    156800.49 
  392600    877.12613    6663255.1    6724.9433    48.731617    2.3577398    154786.63    156862.58 
  392700    922.60029      6660045    6724.9433    48.731617    2.3577398    154690.52    156874.09 
  392800    889.78091    6662413.6    6724.9433    48.731617    2.3577398    154761.08    156866.98 
  392900    880.66669    6661819.5    6724.9433    48.731617    2.3577398     154749.3    156833.63 
  393000    907.95708      6656909    6724.9433    48.731617    2.3577398    154618.06    156766.98 
  393100     869.7258    6658721.3    6724.9433    48.731617    2.3577398    154678.48    156736.92 
  393200    896.88304      6660544    6724.9433    48.731617    2.3577398    154712.22    156834.93 
  393300    947.33874    6660776.4    6724.9433    48.731617    2.3577398    154697.13    156939.25 
  393400    899.64417      6663988    6724.9433    48.731617    2.3577398     154794.3    156923.55 
  393500    895.84272    6661674.2    6724.9433    48.731617    2.3577398    154740.77    156861.02 
  393600    835.90004    6661157.3    6724.9433    48.731617    2.3577398    154749.69    156728.07 
  393700     828.8728    6656490.3    6724.9433    48.731617    2.3577398    154640.41    156602.15 
  393800    822.76127    6659297.5    6724.9433    48.731617    2.3577398    154710.96    156658.24 
  393900    891.57061    6658225.7    6724.9433    48.731617    2.3577398    154657.78    156767.92 
  394000    904.29736    6661361.8    6724.9433    48.731617    2.3577398    154728.33    156868.59 
  394100    904.51628    6663481.6    6724.9433    48.731617    2.3577398    154778.61    156919.38 
  394200    907.21783    6662776.6    6724.9433    48.731617    2.3577398    154762.11    156909.28 
  394300    870.83606    6660101.8    6724.9433    48.731617    2.3577398    154711.88    156772.95 
  394400    879.05023    6656566.4    6724.9433    48.731617    2.3577398    154623.94    156704.44 
  394500    855.46493    6661094.8    6724.9433    48.731617    2.3577398    154742.61    156767.29 
  394600    894.92568    6661694.1    6724.9433    48.731617    2.3577398    154740.86    156858.93 
  394700    893.37298    6662499.9    6724.9433    48.731617    2.3577398    154761.63    156876.04 
  394800     886.0393    6662840.6    6724.9433    48.731617    2.3577398    154770.75    156867.79 
  394900    890.27024    6659862.7    6724.9433    48.731617    2.3577398    154697.55    156804.61 
  395000    845.73191    6660262.1    6724.9433    48.731617    2.3577398    154724.68    156726.33 
  395100    859.82275    6659227.9    6724.9433    48.731617    2.3577398    154694.15    156729.15 
  395200    896.75218      6662589    6724.9433    48.731617    2.3577398    154762.72    156885.12 
  395300    915.54787    6663845.3    6724.9433    48.731617    2.3577398    154784.54    156951.43 
  395400    933.43185    6660901.4    6724.9433    48.731617    2.3577398    154705.93    156915.14 
  395500    883.76998    6659891.8    6724.9433    48.731617    2.3577398    154700.95    156792.62 
  395600    891.16425    6657246.1    6724.9433    48.731617    2.3577398     154633.2    156742.38 
  395700    876.25928    6660137.2    6724.9433    48.731617    2.3577398    154709.93    156783.82 
  395800     890.9026    6660834.1    6724.9433    48.731617    2.3577398    154720.84     156829.4 
  395900    907.51859    6661113.7    6724.9433    48.731617    2.3577398    154721.88    156869.76 
  396000    885.53853    6663887.6    6724.9433    48.731617    2.3577398    154798.61    156894.47 
  396100    932.39085    6662997.3    6724.9433    48.731617    2.3577398    154758.63    156965.38 
  396200    909.31607    6666486.8    6724.9433    48.731617    2.3577398       154850    157002.13 
  396300    890.61723    6662937.4    6724.9433    48.731617    2.3577398    154773.51    156881.39 
  396400    870.44197    6660617.4    6724.9433    48.731617    2.3577398    154724.39    156784.52 
  396500    898.18151    6659485.7    6724.9433    48.731617    2.3577398    154685.82     156811.6 
  396600    889.13022    6663417.4    6724.9433    48.731617    2.3577398    154784.01    156888.37 
  396700    922.43514    6663823.1    6724.9433    48.731617    2.3577398    154782.48    156965.67 
  396800    956.63421    6666488.3    6724.9433    48.731617    2.3577398    154832.56    157096.69 
  396900     990.9839    6661683.8    6724.9433    48.731617    2.3577398    154703.38    157048.81 
  397000    894.01033    6662675.6    6724.9433    48.731617    2.3577398    154765.29    156881.21 
  397100    889.60902    6660825.7    6724.9433    48.731617    2.3577398    154720.93    156826.42 
  397200    916.95444    6657968.4    6724.9433    48.731617    2.3577398    154640.87    156811.08 
  397300    920.55975    6659329.2    6724.9433    48.731617    2.3577398    154673.43    156852.18 
  397400    914.12258    6663872.2    6724.9433    48.731617    2.3577398    154786.69    156950.21 
  397500     952.5657    6663850.7    6724.9433    48.731617    2.3577398    154770.71    157025.21 
  397600    913.70102    6663199.4    6724.9433    48.731617    2.3577398    154770.22    156932.73 
  397700    905.29605    6657959.3    6724.9433    48.731617    2.3577398    154645.66    156788.28 
  397800    909.42636    6657280.2    6724.9433    48.731617    2.3577398    154628.04    156780.44 
  397900    890.11873    6661911.1    6724.9433    48.731617    2.3577398    154748.63    156855.33 
  398000    945.61144    6661675.1    6724.9433    48.731617    2.3577398    154719.78    156957.82 
  398100    887.47678      6665802    6724.9433    48.731617    2.3577398    154843.35     156943.8 
  398200    864.69688    6659312.5    6724.9433    48.731617    2.3577398    154693.56    156740.09 
  398300    856.47386    6659138.3    6724.9433    48.731617    2.3577398    154694.75    156721.82 
  398400    889.77124      6661087    6724.9433    48.731617    2.3577398    154726.71    156832.58 
  398500    920.69896    6661547.6    6724.9433    48.731617    2.3577398    154727.38    156906.46 
  398600    900.10819    6664071.8    6724.9433    48.731617    2.3577398    154797.06     156927.4 
  398700    883.24324      6661697    6724.9433    48.731617    2.3577398     154744.9    156835.33 
  398800     840.3979    6659443.7    6724.9433    48.731617    2.3577398    154708.08     156697.1 
  398900    872.59027    6658676.5    6724.9433    48.731617    2.3577398    154675.82    156741.03 
  399000    870.17594    6663024.7    6724.9433    48.731617    2.3577398    154781.95    156841.45 
  399100    861.11507      6665401    6724.9433    48.731617    2.3577398    154842.14    156880.19 
  399200    912.69691      6661009    6724.9433    48.731617    2.3577398    154718.34    156878.48 
  399300    901.80242      6660573    6724.9433    48.731617    2.3577398    154711.53    156845.88 
  399400    855.90447    6659083.7    6724.9433    48.731617    2.3577398    154692.77    156718.49 
  399500    869.68481    6656847.7    6724.9433    48.731617    2.3577398     154633.4    156691.73 
  399600    897.76837    6659701.2    6724.9433    48.731617    2.3577398     154691.6     156816.4 
  399700    905.01174    6662742.6    6724.9433    48.731617    2.3577398    154761.98    156903.93 
  399800    913.16862    6661715.6    6724.9433    48.731617    2.3577398    154735.33    156896.58 
  399900    907.10272    6659420.3    6724.9433    48.731617    2.3577398    154680.49    156827.39 
  400000    868.97609    6658931.4    6724.9433    48.731617    2.3577398    154684.53    156741.19 
  400100    881.45734    6655484.7    6724.9433    48.731617    2.3577398    154594.96    156681.16 
Loop time of 419.475 on 1 procs for 400000 steps with 795 atoms

Performance: 20.597 ns/day, 1.165 hours/ns, 953.573 timesteps/s
99.8% CPU use with 1 MPI tasks x no OpenMP threads

MPI task timing breakdown:
Section |  min time  |  avg time  |  max time  |%varavg| %total
---------------------------------------------------------------
Pair    | 368.1      | 368.1      | 368.1      |   0.0 | 87.75
Neigh   | 20.367     | 20.367     | 20.367     |   0.0 |  4.86
Comm    | 18.303     | 18.303     | 18.303     |   0.0 |  4.36
Output  | 1.4809     | 1.4809     | 1.4809     |   0.0 |  0.35
Modify  | 7.7638     | 7.7638     | 7.7638     |   0.0 |  1.85
Other   |            | 3.461      |            |       |  0.83

Nlocal:            795 ave         795 max         795 min
Histogram: 1 0 0 0 0 0 0 0 0 0
Nghost:           6324 ave        6324 max        6324 min
Histogram: 1 0 0 0 0 0 0 0 0 0
Neighs:          53150 ave       53150 max       53150 min
Histogram: 1 0 0 0 0 0 0 0 0 0

Total # of neighbors = 53150
Ave neighs/atom = 66.855346
Neighbor list builds = 9927
Dangerous builds = 26

write_data graphene_single_layer_LJ_795C_after_temp_900K_nv.data ### MODIFY FILE NAME ###
System init for write_data ...
  generated 0 of 0 mixed pair_coeff terms from geometric mixing rule
Total wall time: 0:06:59
