
# System definition
read_data graphene_single_layer_x-45_y-45_795_C.data
Reading data file ...
  orthogonal box = (-51.000000 -51.000000 -51.000000) to (96.000000 96.000000 51.000000)
  2 by 4 by 2 MPI processor grid
  reading atoms ...
  795 atoms
  read_data CPU = 0.005 seconds

pair_style reax/c NULL
pair_coeff * * ffield.reax.cho C
Reading potential file ffield.reax.cho with DATE: 2011-02-18
fix qeq_reax all qeq/reax 1 0.0 10.0 1.0e-6 reax/c


# Minimization
timestep 0.25
min_style cg
thermo 100
thermo_style custom step temp press vol lx density pe etotal
dump 2 all custom 1000 graphene_single_layer_ReaxFF_795_C_temp_500K.lammpstrj id type x y z
minimize 1.0e-6 1.0e-6 100 1000

CITE-CITE-CITE-CITE-CITE-CITE-CITE-CITE-CITE-CITE-CITE-CITE-CITE

Your simulation uses code contributions which should be cited:

- pair reaxff command:

@Article{Aktulga12,
 author = {H. M. Aktulga, J. C. Fogarty, S. A. Pandit, A. Y. Grama},
 title = {Parallel reactive molecular dynamics: Numerical methods and algorithmic techniques},
 journal = {Parallel Computing},
 year =    2012,
 volume =  38,
 pages =   {245--259}
}

- fix qeq/reaxff command:

@Article{Aktulga12,
 author = {H. M. Aktulga, J. C. Fogarty, S. A. Pandit, A. Y. Grama},
 title = {Parallel reactive molecular dynamics: Numerical methods and algorithmic techniques},
 journal = {Parallel Computing},
 year =    2012,
 volume =  38,
 pages =   {245--259}
}

CITE-CITE-CITE-CITE-CITE-CITE-CITE-CITE-CITE-CITE-CITE-CITE-CITE

WARNING: Using 'neigh_modify every 1 delay 0 check yes' setting during minimization (../min.cpp:188)
Neighbor list info ...
  update every 1 steps, delay 0 steps, check yes
  max neighbors/atom: 10000, page size: 100000
  master list distance cutoff = 10.4
  ghost atom cutoff = 10.4
  binsize = 5.2, bins = 29 29 20
  2 neighbor lists, perpetual/occasional/extra = 2 0 0
  (1) pair reax/c, perpetual
      attributes: half, newton off, ghost
      pair build: half/bin/newtoff/ghost
      stencil: full/ghost/bin/3d
      bin: standard
  (2) fix qeq/reax, perpetual, copy from (1)
      attributes: half, newton off, ghost
      pair build: copy
      stencil: none
      bin: none
Per MPI rank memory allocation (min/avg/max) = 7.965 | 10.90 | 14.56 Mbytes
Step Temp Press Volume Lx Density PotEng TotEng 
       0            0    4589.6155      2204118          147  0.007193656   -142445.78   -142445.78 
      57            0    1294.9092      2204118          147  0.007193656   -150031.46   -150031.46 
Loop time of 3.34304 on 16 procs for 57 steps with 795 atoms

100.0% CPU use with 16 MPI tasks x no OpenMP threads

Minimization stats:
  Stopping criterion = energy tolerance
  Energy initial, next-to-last, final = 
     -142445.777810412  -150031.434465826  -150031.460524184
  Force two-norm initial, final = 2416.1570 1787.6736
  Force max component initial, final = 272.51119 337.29483
  Final line search alpha, max atom move = 0.00017977701 0.060637855
  Iterations, force evaluations = 57 237

MPI task timing breakdown:
Section |  min time  |  avg time  |  max time  |%varavg| %total
---------------------------------------------------------------
Pair    | 0.00012942 | 0.70108    | 2.3293     | 102.4 | 20.97
Neigh   | 2.2855e-05 | 0.0015375  | 0.0032041  |   3.9 |  0.05
Comm    | 0.00025854 | 0.4071     | 1.6088     |  91.3 | 12.18
Output  | 0          | 0          | 0          |   0.0 |  0.00
Modify  | 0.99759    | 1.0001     | 1.0026     |   0.2 | 29.92
Other   |            | 1.233      |            |       | 36.89

Nlocal:        49.6875 ave         209 max           0 min
Histogram: 12 0 0 0 0 0 0 0 0 4
Nghost:        162.812 ave         432 max           0 min
Histogram: 8 0 0 0 0 4 0 0 0 4
Neighs:        3113.44 ave       13116 max           0 min
Histogram: 12 0 0 0 0 0 0 0 0 4

Total # of neighbors = 49815
Ave neighs/atom = 62.660377
Neighbor list builds = 6
Dangerous builds = 0

fix 1 all nvt temp 500.0 500.0 $(100.0*dt)
fix 1 all nvt temp 500.0 500.0 25
run 400000
Per MPI rank memory allocation (min/avg/max) = 6.841 | 9.777 | 13.44 Mbytes
Step Temp Press Volume Lx Density PotEng TotEng 
      57            0    1294.9092      2204118          147  0.007193656   -150031.46   -150031.46 
     100    121.25178    1524.5929      2204118          147  0.007193656   -150304.18   -150017.21 
     200    276.60115   -714.42569      2204118          147  0.007193656   -150495.16   -149840.51 
     300    310.55891   -811.66386      2204118          147  0.007193656   -150377.65   -149642.63 
     400    410.05297   -840.16157      2204118          147  0.007193656   -150337.45   -149366.95 
     500    532.67463    717.73589      2204118          147  0.007193656   -150405.12    -149144.4 
     600    439.20659    760.91984      2204118          147  0.007193656   -150016.92   -148977.43 
     700    600.67795   -572.45511      2204118          147  0.007193656   -150297.81   -148876.14 
     800    420.33199      -712.16      2204118          147  0.007193656   -149983.21   -148988.38 
     900    559.03649   -627.78362      2204118          147  0.007193656   -150185.94   -148862.83 
    1000    639.53045    493.88241      2204118          147  0.007193656   -150548.32    -149034.7 
    1100    436.85148    1363.3404      2204118          147  0.007193656    -150318.2   -149284.28 
    1200    455.22926   -397.49774      2204118          147  0.007193656   -150469.83   -149392.41 
    1300    434.13065   -540.10625      2204118          147  0.007193656   -150315.56   -149288.07 
    1400    584.08171   -333.71754      2204118          147  0.007193656   -150475.15   -149092.77 
    1500    541.28941    534.11265      2204118          147  0.007193656   -150531.66   -149250.56 
    1600    504.85845     565.6077      2204118          147  0.007193656   -150610.12   -149415.24 
    1700    435.17636   -569.89523      2204118          147  0.007193656   -150545.27   -149515.31 
    1800    437.34992   -308.76598      2204118          147  0.007193656   -150440.02   -149404.91 
    1900    537.87167   -280.86264      2204118          147  0.007193656   -150488.91    -149215.9 
    2000    554.08001    352.93028      2204118          147  0.007193656   -150434.86   -149123.48 
    2100     561.0275    89.519394      2204118          147  0.007193656   -150528.88   -149201.06 
    2200    495.79071   -343.10761      2204118          147  0.007193656   -150600.85   -149427.43 
    2300    471.35764   -11.356482      2204118          147  0.007193656   -150619.64   -149504.04 
    2400    503.60228    399.10227      2204118          147  0.007193656   -150604.04   -149412.13 
    2500    539.45738    312.34593      2204118          147  0.007193656    -150557.1   -149280.33 
    2600    545.28398   -157.02757      2204118          147  0.007193656    -150595.5   -149304.95 
    2700    488.38627   -371.42953      2204118          147  0.007193656   -150594.68   -149438.79 
    2800     462.9609   -159.90589      2204118          147  0.007193656   -150582.27   -149486.55 
    2900    498.26547    518.44573      2204118          147  0.007193656   -150627.29   -149448.01 
    3000    520.92807   -98.278266      2204118          147  0.007193656   -150601.48   -149368.57 
    3100    505.13694   -143.00483      2204118          147  0.007193656   -150512.68   -149317.14 
    3200     528.8135   -92.098665      2204118          147  0.007193656   -150583.49   -149331.92 
    3300    542.42162    244.71142      2204118          147  0.007193656   -150754.98    -149471.2 
    3400    466.14536    147.85833      2204118          147  0.007193656   -150690.58   -149587.32 
    3500    469.81453   -297.13235      2204118          147  0.007193656   -150694.12   -149582.18 
    3600    490.57996   -53.100203      2204118          147  0.007193656   -150619.22   -149458.13 
    3700    529.23268    60.179844      2204118          147  0.007193656   -150629.54   -149376.97 
    3800     527.8166    321.04299      2204118          147  0.007193656   -150695.85   -149446.64 
    3900    516.96514   -84.041577      2204118          147  0.007193656   -150784.13   -149560.59 
    4000     472.8353   -276.00778      2204118          147  0.007193656   -150697.96   -149578.87 
    4100     464.1672    66.159753      2204118          147  0.007193656   -150603.57   -149504.99 
    4200    507.52934    131.67116      2204118          147  0.007193656   -150642.53   -149441.32 
    4300     516.0389   -82.161533      2204118          147  0.007193656   -150621.63   -149400.28 
    4400     514.0431   -290.09723      2204118          147  0.007193656   -150677.38   -149460.76 
    4500    498.07319    73.162471      2204118          147  0.007193656   -150708.71   -149529.89 
    4600    484.88046    365.79468      2204118          147  0.007193656   -150711.94   -149564.35 
    4700    516.71309    116.63432      2204118          147  0.007193656   -150762.92   -149539.98 
    4800    531.42616   -80.241703      2204118          147  0.007193656   -150719.47   -149461.71 
    4900    507.68785   -37.249577      2204118          147  0.007193656   -150659.79   -149458.21 
    5000    520.97996    78.706231      2204118          147  0.007193656    -150747.3   -149514.26 
    5100    505.58694   -138.59111      2204118          147  0.007193656   -150763.35   -149566.74 
    5200    475.38364     -265.864      2204118          147  0.007193656   -150672.27   -149547.15 
    5300    501.28499   -48.392037      2204118          147  0.007193656   -150657.25   -149470.82 
    5400     531.5124    44.302208      2204118          147  0.007193656    -150698.3   -149440.33 
    5500    503.43347    37.226648      2204118          147  0.007193656   -150655.93   -149464.42 
    5600    484.19884    97.961957      2204118          147  0.007193656   -150689.92   -149543.94 
    5700    492.39545   -117.67247      2204118          147  0.007193656   -150739.85   -149574.47 
    5800    470.49389    38.235313      2204118          147  0.007193656   -150654.48   -149540.93 
    5900    484.24613    164.86083      2204118          147  0.007193656   -150624.18   -149478.08 
    6000    491.69791    -5.257716      2204118          147  0.007193656   -150630.38   -149466.65 
    6100    496.34467   -69.482148      2204118          147  0.007193656   -150667.42   -149492.69 
    6200    483.77676   -101.95455      2204118          147  0.007193656   -150684.98      -149540 
    6300    519.08946    62.951019      2204118          147  0.007193656   -150772.99   -149544.43 
    6400    477.62701    16.624133      2204118          147  0.007193656   -150679.53    -149549.1 
    6500    494.58125   -52.180969      2204118          147  0.007193656   -150668.18   -149497.63 
    6600    525.06769   -97.750673      2204118          147  0.007193656   -150685.28   -149442.57 
    6700    505.74102    37.779517      2204118          147  0.007193656   -150683.07    -149486.1 
    6800    502.89201     110.5386      2204118          147  0.007193656    -150740.3   -149550.07 
    6900    483.99826   -25.882515      2204118          147  0.007193656   -150698.17   -149552.66 
    7000    494.41954     64.32915      2204118          147  0.007193656   -150675.11   -149504.93 
    7100    511.47657    105.38914      2204118          147  0.007193656   -150670.95    -149460.4 
    7200    506.32537    75.212474      2204118          147  0.007193656   -150666.56   -149468.21 
    7300    505.03446   -11.108378      2204118          147  0.007193656   -150782.32   -149587.02 
    7400    482.25684   -67.077899      2204118          147  0.007193656    -150736.6   -149595.22 
    7500    503.65353    -58.93927      2204118          147  0.007193656   -150756.07   -149564.04 
    7600    506.65237     73.16212      2204118          147  0.007193656   -150696.91   -149497.78 
    7700     509.2803   -197.63262      2204118          147  0.007193656   -150651.78   -149446.43 
    7800    514.37142    125.04677      2204118          147  0.007193656   -150656.32   -149438.93 
    7900    534.27756   -2.7669599      2204118          147  0.007193656   -150768.24   -149503.74 
    8000    503.70543   -66.949228      2204118          147  0.007193656   -150732.66   -149540.51 
    8100    473.46954   -94.778144      2204118          147  0.007193656   -150690.17   -149569.58 
    8200    504.75796    197.10046      2204118          147  0.007193656   -150738.69   -149544.05 
    8300    504.75926     55.75059      2204118          147  0.007193656   -150689.14    -149494.5 
    8400    509.74342    -1.111393      2204118          147  0.007193656   -150720.25   -149513.81 
    8500    515.20853   -86.551178      2204118          147  0.007193656    -150806.6   -149587.23 
    8600    479.66729    80.361271      2204118          147  0.007193656   -150762.67   -149627.42 
    8700    465.46477    64.635103      2204118          147  0.007193656   -150692.79   -149591.15 
    8800    500.87504    -63.20137      2204118          147  0.007193656   -150708.09   -149522.63 
    8900    513.64356   -124.00907      2204118          147  0.007193656   -150717.71   -149502.04 
    9000    535.23272   -74.786502      2204118          147  0.007193656   -150780.14   -149513.38 
    9100    516.41677    119.37704      2204118          147  0.007193656   -150798.79   -149576.56 
    9200    470.14326    60.031435      2204118          147  0.007193656      -150734   -149621.28 
    9300    483.96895    -84.80249      2204118          147  0.007193656   -150744.71   -149599.27 
    9400    483.52391    13.125913      2204118          147  0.007193656   -150697.88    -149553.5 
    9500    491.27555    58.755619      2204118          147  0.007193656    -150678.3   -149515.57 
    9600    524.02501      70.3402      2204118          147  0.007193656   -150736.41   -149496.17 
    9700    509.94655    23.047682      2204118          147  0.007193656   -150742.12    -149535.2 
    9800    473.57776   -96.124363      2204118          147  0.007193656   -150739.01   -149618.16 
    9900    480.21725   -98.513496      2204118          147  0.007193656    -150798.3   -149661.74 
   10000    484.61941    54.853952      2204118          147  0.007193656   -150762.45   -149615.48 
   10100    490.29099   -39.684566      2204118          147  0.007193656   -150726.48   -149566.07 
   10200    519.84011     48.28329      2204118          147  0.007193656   -150772.73   -149542.39 
   10300    493.72206   -80.269388      2204118          147  0.007193656   -150709.59   -149541.07 
   10400     493.8778   -2.0306521      2204118          147  0.007193656    -150728.1   -149559.21 
   10500    490.36468    155.23649      2204118          147  0.007193656   -150719.54   -149558.97 
   10600    493.74499   -28.376303      2204118          147  0.007193656   -150691.11   -149522.53 
   10700    518.76734    159.80725      2204118          147  0.007193656   -150688.74   -149460.94 
   10800    523.18673    27.554276      2204118          147  0.007193656   -150712.61   -149474.35 
   10900    463.49803    45.033315      2204118          147  0.007193656   -150659.37   -149562.38 
   11000    466.82396   -212.60128      2204118          147  0.007193656   -150675.11   -149570.25 
   11100    497.25522   -1.9323452      2204118          147  0.007193656   -150698.51   -149521.62 
   11200     520.0908   -3.5617724      2204118          147  0.007193656      -150699   -149468.07 
   11300    517.28037    13.871749      2204118          147  0.007193656   -150701.06   -149476.78 
   11400    521.98577   -37.296154      2204118          147  0.007193656   -150770.64   -149535.22 
   11500    499.65445    96.802278      2204118          147  0.007193656   -150743.33   -149560.76 
   11600     516.6705    148.08762      2204118          147  0.007193656   -150794.77   -149571.94 
   11700    489.73793   -138.77521      2204118          147  0.007193656   -150693.87   -149534.78 
   11800    535.63937   -32.090109      2204118          147  0.007193656   -150742.95   -149475.22 
   11900       486.01    106.19357      2204118          147  0.007193656    -150643.9   -149493.63 
   12000    504.24065   -228.67032      2204118          147  0.007193656   -150714.65   -149521.23 
   12100    496.93758   -92.883043      2204118          147  0.007193656   -150712.31   -149536.17 
   12200    497.09168    30.711935      2204118          147  0.007193656    -150716.5      -149540 
   12300    486.19746    33.242798      2204118          147  0.007193656   -150689.28   -149538.57 
   12400    509.11349   -110.72569      2204118          147  0.007193656   -150714.63   -149509.67 
   12500     537.9324   -164.24376      2204118          147  0.007193656   -150732.47   -149459.31 
   12600    519.51402   -2.7490149      2204118          147  0.007193656   -150735.61   -149506.04 
   12700     478.8154    123.73901      2204118          147  0.007193656   -150697.65   -149564.41 
   12800    501.18838    -61.52896      2204118          147  0.007193656   -150757.16   -149570.97 
   12900    491.72339     243.4741      2204118          147  0.007193656   -150705.37   -149541.58 
   13000    502.08502     51.06374      2204118          147  0.007193656      -150644   -149455.68 
   13100    514.59473     99.83128      2204118          147  0.007193656    -150682.8   -149464.88 
   13200    529.03111   -198.40211      2204118          147  0.007193656   -150763.76   -149511.67 
   13300    491.80896   -14.107573      2204118          147  0.007193656   -150712.14   -149548.14 
   13400    466.35091    58.803848      2204118          147  0.007193656   -150682.92   -149579.18 
   13500    485.53109   -10.291205      2204118          147  0.007193656   -150745.74    -149596.6 
   13600    483.83078   -142.98147      2204118          147  0.007193656   -150736.69   -149591.58 
   13700     495.9268   -82.149715      2204118          147  0.007193656   -150690.41   -149516.67 
   13800    535.53596     62.93916      2204118          147  0.007193656      -150740   -149472.52 
   13900    492.23278     162.8423      2204118          147  0.007193656   -150675.54   -149510.55 
   14000    483.31722   -61.391508      2204118          147  0.007193656   -150716.83   -149572.94 
   14100    510.23201    -33.03369      2204118          147  0.007193656   -150773.23   -149565.63 
   14200    480.08401    4.1022502      2204118          147  0.007193656   -150690.86   -149554.62 
   14300     499.7182    54.854938      2204118          147  0.007193656   -150708.37   -149525.65 
   14400    520.01645    -61.08411      2204118          147  0.007193656    -150706.1   -149475.35 
   14500    536.70579   -80.140235      2204118          147  0.007193656   -150686.49   -149416.24 
   14600    504.53317    19.052151      2204118          147  0.007193656   -150644.99   -149450.88 
   14700    499.13981    35.879517      2204118          147  0.007193656   -150717.14   -149535.79 
   14800    512.24027    43.175234      2204118          147  0.007193656   -150771.09   -149558.74 
   14900    507.27119   -89.880013      2204118          147  0.007193656   -150753.73   -149553.14 
   15000     520.1144   -59.659898      2204118          147  0.007193656   -150764.58    -149533.6 
   15100    499.98149    146.87207      2204118          147  0.007193656   -150678.88   -149495.54 
   15200    498.07964    71.444815      2204118          147  0.007193656   -150651.54    -149472.7 
   15300    513.14597    7.7527647      2204118          147  0.007193656   -150711.67   -149497.17 
   15400    504.89101   -56.138227      2204118          147  0.007193656   -150771.11   -149576.15 
   15500    500.70275    24.340784      2204118          147  0.007193656   -150780.93   -149595.89 
   15600    502.73641    126.60666      2204118          147  0.007193656   -150758.46    -149568.6 
   15700     496.3181   -169.03145      2204118          147  0.007193656   -150715.49   -149540.82 
   15800    518.82623   -118.92097      2204118          147  0.007193656   -150678.04    -149450.1 
   15900    532.37701     26.90158      2204118          147  0.007193656   -150696.51    -149436.5 
   16000    500.50332    45.791792      2204118          147  0.007193656   -150700.64   -149516.07 
   16100     513.8308    70.074164      2204118          147  0.007193656   -150771.15   -149555.03 
   16200     523.8025    107.31963      2204118          147  0.007193656   -150817.94   -149578.23 
   16300    490.01632    136.44554      2204118          147  0.007193656   -150769.69   -149609.94 
   16400    483.97264    133.08029      2204118          147  0.007193656   -150777.08   -149631.63 
   16500    501.20738   -16.646455      2204118          147  0.007193656   -150758.18   -149571.94 
   16600    531.05668    160.05667      2204118          147  0.007193656   -150768.04   -149511.16 
   16700    498.50246   -107.38271      2204118          147  0.007193656   -150684.61   -149504.77 
   16800     487.0945   -2.7179493      2204118          147  0.007193656   -150719.78   -149566.95 
   16900    473.96168   -4.8682923      2204118          147  0.007193656   -150754.76   -149633.01 
   17000    468.85085   -44.094174      2204118          147  0.007193656   -150709.79   -149600.13 
   17100    518.45571    55.448289      2204118          147  0.007193656   -150755.74   -149528.68 
   17200    518.52508    126.88468      2204118          147  0.007193656   -150722.49   -149495.26 
   17300    516.12286   -74.164403      2204118          147  0.007193656   -150731.91   -149510.37 
   17400    470.43614    108.08705      2204118          147  0.007193656   -150707.24   -149593.83 
   17500     488.8969    124.96754      2204118          147  0.007193656    -150766.2    -149609.1 
   17600    518.84355   -91.495541      2204118          147  0.007193656   -150805.56   -149577.58 
   17700    486.57625   -46.888301      2204118          147  0.007193656   -150706.79   -149555.18 
   17800     496.7679   -5.0828971      2204118          147  0.007193656   -150695.15   -149519.42 
   17900    521.24095   -44.420022      2204118          147  0.007193656   -150690.18   -149456.53 
   18000    518.02014   -94.212146      2204118          147  0.007193656   -150676.59   -149450.56 
   18100    499.76734    16.888763      2204118          147  0.007193656   -150720.59   -149537.75 
   18200    517.57405    33.760782      2204118          147  0.007193656   -150800.71   -149575.73 
   18300     498.4393    38.956649      2204118          147  0.007193656   -150757.47   -149577.78 
   18400    509.44318   -8.2008916      2204118          147  0.007193656   -150763.89   -149558.16 
   18500    512.40946   -34.674247      2204118          147  0.007193656   -150734.94   -149522.19 
   18600    498.28382    81.358746      2204118          147  0.007193656   -150664.88   -149485.56 
   18700    493.60247    60.726792      2204118          147  0.007193656   -150678.56   -149510.32 
   18800    495.95949    73.800606      2204118          147  0.007193656   -150761.51   -149587.69 
   18900    468.43874   -59.385325      2204118          147  0.007193656   -150726.15   -149617.46 
   19000    477.71238    13.271808      2204118          147  0.007193656   -150727.91   -149597.28 
   19100    482.74932   -115.88519      2204118          147  0.007193656   -150704.12   -149561.56 
   19200    492.08116    64.178177      2204118          147  0.007193656   -150640.33   -149475.69 
   19300    520.42418    11.634411      2204118          147  0.007193656   -150649.06   -149417.33 
   19400    505.02007   -109.12101      2204118          147  0.007193656   -150666.38   -149471.11 
   19500    479.76836   -94.001569      2204118          147  0.007193656   -150660.55   -149525.05 
   19600    490.30209   -6.4826598      2204118          147  0.007193656   -150723.98   -149563.56 
   19700    487.69567    41.213386      2204118          147  0.007193656   -150738.41   -149584.15 
   19800    474.15558    43.396517      2204118          147  0.007193656   -150709.47   -149587.26 
   19900    535.93043    21.094359      2204118          147  0.007193656    -150761.4   -149492.98 
   20000     505.5208    225.12113      2204118          147  0.007193656   -150664.66   -149468.21 
   20100    487.67748   -82.764488      2204118          147  0.007193656   -150681.99   -149527.78 
   20200    498.68602   -38.111004      2204118          147  0.007193656   -150753.65   -149573.37 
   20300    485.92956   -12.369431      2204118          147  0.007193656    -150735.9   -149585.82 
   20400    480.15755   -46.681873      2204118          147  0.007193656    -150686.2   -149549.78 
   20500    503.21576     47.98423      2204118          147  0.007193656   -150648.15   -149457.15 
   20600    510.21365    24.885773      2204118          147  0.007193656   -150652.11   -149444.56 
   20700     499.8961    22.396971      2204118          147  0.007193656   -150684.99   -149501.85 
   20800    495.87905   -50.047299      2204118          147  0.007193656   -150745.19   -149571.56 
   20900    516.10627    65.812562      2204118          147  0.007193656   -150829.37   -149607.87 
   21000    516.42698    111.41608      2204118          147  0.007193656   -150849.64   -149627.38 
   21100    490.17292    9.6344917      2204118          147  0.007193656   -150744.83   -149584.71 
   21200    484.24462   -58.316208      2204118          147  0.007193656   -150655.66   -149509.57 
   21300    528.44189    40.262652      2204118          147  0.007193656   -150762.13   -149511.44 
   21400    505.17098   -10.582849      2204118          147  0.007193656   -150761.66   -149566.04 
   21500    519.74321     150.8742      2204118          147  0.007193656   -150838.18   -149608.07 
   21600    469.49539   -92.518149      2204118          147  0.007193656   -150726.23   -149615.04 
   21700    512.13196   -70.920482      2204118          147  0.007193656    -150798.2    -149586.1 
   21800    520.42796    59.483613      2204118          147  0.007193656   -150800.64   -149568.91 
   21900    501.71485    46.899799      2204118          147  0.007193656   -150746.58   -149559.14 
   22000    506.67613   -43.845796      2204118          147  0.007193656    -150741.4   -149542.22 
   22100     508.0384    60.967907      2204118          147  0.007193656   -150734.33   -149531.93 
   22200      514.173    76.356179      2204118          147  0.007193656   -150739.22    -149522.3 
   22300    510.28043   -113.55479      2204118          147  0.007193656   -150735.56   -149527.85 
   22400      499.286   -49.299154      2204118          147  0.007193656   -150752.53   -149570.83 
   22500    492.32888    -55.30232      2204118          147  0.007193656   -150808.28   -149643.05 
   22600    496.86738    132.88754      2204118          147  0.007193656   -150852.52   -149676.55 
   22700    506.83912   -22.220141      2204118          147  0.007193656   -150851.45   -149651.88 
   22800     491.2073   -184.95598      2204118          147  0.007193656   -150761.28   -149598.71 
   22900    525.13524    92.646972      2204118          147  0.007193656   -150830.55   -149587.68 
   23000     518.9702   -9.5521999      2204118          147  0.007193656   -150835.27   -149606.99 
   23100    491.63628   -52.030588      2204118          147  0.007193656      -150788   -149624.42 
   23200    493.72903    36.216887      2204118          147  0.007193656    -150807.7   -149639.16 
   23300    468.21965    112.59511      2204118          147  0.007193656   -150782.15   -149673.99 
   23400    493.27572    15.820568      2204118          147  0.007193656   -150838.95   -149671.49 
   23500    509.88667    88.039348      2204118          147  0.007193656   -150813.08    -149606.3 
   23600     498.1205   -127.17758      2204118          147  0.007193656   -150738.13    -149559.2 
   23700    510.58433    34.335206      2204118          147  0.007193656   -150765.58   -149557.15 
   23800    513.60146    48.329761      2204118          147  0.007193656   -150811.28   -149595.71 
   23900    457.08225    87.762286      2204118          147  0.007193656   -150733.67   -149651.86 
   24000    482.48857    4.6592595      2204118          147  0.007193656   -150879.41   -149737.47 
   24100    476.40691   -87.038684      2204118          147  0.007193656   -150886.08   -149758.53 
   24200     472.4895    19.808973      2204118          147  0.007193656   -150795.58   -149677.31 
   24300    508.23226    -4.970079      2204118          147  0.007193656   -150835.92   -149633.05 
   24400    509.84241   -46.043317      2204118          147  0.007193656   -150788.07   -149581.39 
   24500    517.51968   -15.411879      2204118          147  0.007193656   -150775.98   -149551.13 
   24600    523.07357   -5.1104025      2204118          147  0.007193656   -150819.81   -149581.82 
   24700    470.54619    129.07703      2204118          147  0.007193656    -150797.6   -149683.93 
   24800    507.23631    21.959245      2204118          147  0.007193656   -150877.01    -149676.5 
   24900    484.11179    18.387367      2204118          147  0.007193656   -150774.75   -149628.97 
   25000    496.98541    91.278646      2204118          147  0.007193656   -150757.61   -149581.36 
   25100    495.58891    93.619616      2204118          147  0.007193656   -150749.94      -149577 
   25200    505.01683   -27.645119      2204118          147  0.007193656   -150782.59   -149587.34 
   25300    513.89715   -105.18107      2204118          147  0.007193656   -150814.52   -149598.25 
   25400    493.06406   -25.295317      2204118          147  0.007193656   -150799.86    -149632.9 
   25500    476.26311   -13.592068      2204118          147  0.007193656   -150780.93   -149653.73 
   25600    517.72135    103.85147      2204118          147  0.007193656   -150841.52   -149616.19 
   25700    499.22571   -141.40041      2204118          147  0.007193656   -150741.13   -149559.58 
   25800    496.72106    25.100968      2204118          147  0.007193656   -150704.57   -149528.95 
   25900    517.87954    66.250735      2204118          147  0.007193656   -150772.82   -149547.12 
   26000    509.39204   -91.416433      2204118          147  0.007193656   -150852.56   -149646.95 
   26100    491.59059   -0.4646309      2204118          147  0.007193656   -150838.23   -149674.76 
   26200    494.34724    3.9050446      2204118          147  0.007193656   -150807.92   -149637.92 
   26300     487.2419    93.850532      2204118          147  0.007193656   -150720.97   -149567.79 
   26400    494.41772   -80.880807      2204118          147  0.007193656   -150728.11   -149557.94 
   26500    503.83721   -69.201399      2204118          147  0.007193656   -150765.04   -149572.58 
   26600    518.84526    118.24904      2204118          147  0.007193656   -150834.03   -149606.05 
   26700    487.93207   -28.356054      2204118          147  0.007193656   -150845.61   -149690.79 
   26800    481.46106   -112.05094      2204118          147  0.007193656    -150834.7    -149695.2 
   26900    497.89055   -50.976897      2204118          147  0.007193656   -150817.94   -149639.55 
   27000    510.18157    79.414787      2204118          147  0.007193656   -150813.52   -149606.04 
   27100    503.77459   -80.573902      2204118          147  0.007193656   -150784.13   -149591.82 
   27200    498.64071   -96.302671      2204118          147  0.007193656   -150755.72   -149575.55 
   27300    523.69033    1.7559383      2204118          147  0.007193656   -150787.57   -149548.12 
   27400    503.39033    19.688371      2204118          147  0.007193656   -150774.24   -149582.83 
   27500    487.19485   -111.04319      2204118          147  0.007193656   -150794.74   -149641.67 
   27600    491.09349   -38.340375      2204118          147  0.007193656   -150808.58   -149646.27 
   27700    516.18726    57.029841      2204118          147  0.007193656   -150812.69   -149590.99 
   27800    521.97494    41.775115      2204118          147  0.007193656   -150755.48   -149520.09 
   27900    463.52316     116.1981      2204118          147  0.007193656    -150637.1   -149540.05 
   28000     507.3628    106.93161      2204118          147  0.007193656    -150767.8   -149566.99 
   28100    501.69817    175.04671      2204118          147  0.007193656   -150784.87   -149597.47 
   28200    506.19987   -26.269806      2204118          147  0.007193656   -150815.67   -149617.62 
   28300    513.30052    182.45918      2204118          147  0.007193656   -150841.51   -149626.65 
   28400    459.48889   -53.394021      2204118          147  0.007193656    -150704.2    -149616.7 
   28500    510.97263   -3.2374392      2204118          147  0.007193656   -150812.75    -149603.4 
   28600     506.4991     52.66298      2204118          147  0.007193656   -150806.33   -149607.56 
   28700    503.25389   -11.216786      2204118          147  0.007193656   -150790.02   -149598.94 
   28800    519.70498   -124.87885      2204118          147  0.007193656    -150799.1   -149569.08 
   28900    509.09361   -140.62313      2204118          147  0.007193656   -150721.94   -149517.04 
   29000     529.2622   -31.759655      2204118          147  0.007193656   -150775.54    -149522.9 
   29100    506.56647    172.97736      2204118          147  0.007193656   -150809.83   -149610.91 
   29200    517.19392   -112.63396      2204118          147  0.007193656      -150860   -149635.92 
   29300    494.04539   -135.64146      2204118          147  0.007193656    -150807.9   -149638.61 
   29400    522.98452    64.412812      2204118          147  0.007193656   -150879.34   -149641.56 
   29500    522.36912    102.46467      2204118          147  0.007193656   -150849.15   -149612.83 
   29600    526.51198   -102.23514      2204118          147  0.007193656    -150795.1   -149548.97 
   29700    521.39145    34.879927      2204118          147  0.007193656   -150758.01      -149524 
   29800    517.11101   -29.549935      2204118          147  0.007193656   -150824.64   -149600.76 
   29900    488.99644   -34.463196      2204118          147  0.007193656   -150795.25   -149637.91 
   30000    511.31904   -32.447972      2204118          147  0.007193656      -150829   -149618.83 
   30100    496.96103    81.777708      2204118          147  0.007193656   -150762.49    -149586.3 
   30200    505.97241    12.367556      2204118          147  0.007193656   -150726.93   -149529.41 
   30300    540.94172   -49.712592      2204118          147  0.007193656   -150751.91   -149471.63 
   30400    503.38619   -7.3217658      2204118          147  0.007193656   -150709.28   -149517.88 
   30500    487.19032   -81.107237      2204118          147  0.007193656   -150755.24   -149602.18 
   30600    492.50666      125.967      2204118          147  0.007193656   -150794.19   -149628.54 
   30700    486.40145    224.72977      2204118          147  0.007193656    -150804.7    -149653.5 
   30800    474.40285   -37.061872      2204118          147  0.007193656   -150772.97   -149650.17 
   30900    519.85932   -89.700681      2204118          147  0.007193656    -150793.8   -149563.42 
   31000    533.63547     -29.3128      2204118          147  0.007193656   -150791.95   -149528.96 
   31100     507.2834    52.044246      2204118          147  0.007193656    -150766.1   -149565.48 
   31200    504.66206   -167.41868      2204118          147  0.007193656   -150819.64   -149625.22 
   31300    489.55523   -90.788835      2204118          147  0.007193656   -150780.08   -149621.42 
   31400    515.50614    65.559915      2204118          147  0.007193656   -150816.42   -149596.34 
   31500    501.32299    67.538556      2204118          147  0.007193656   -150768.53   -149582.01 
   31600    516.12704   -96.801526      2204118          147  0.007193656   -150824.39   -149602.84 
   31700    482.99577    20.396643      2204118          147  0.007193656   -150798.11   -149654.97 
   31800    494.00244    104.08129      2204118          147  0.007193656   -150847.44   -149678.25 
   31900    483.02215     142.2786      2204118          147  0.007193656   -150800.72   -149657.52 
   32000    506.22121   -118.37331      2204118          147  0.007193656   -150771.67   -149573.56 
   32100    501.29324     -126.571      2204118          147  0.007193656   -150721.57   -149535.13 
   32200    514.75145    73.102896      2204118          147  0.007193656   -150761.83   -149543.54 
   32300    517.02443    20.159327      2204118          147  0.007193656   -150833.53   -149609.85 
   32400    497.01024    39.192983      2204118          147  0.007193656   -150819.75   -149643.45 
   32500    515.02644    17.885084      2204118          147  0.007193656   -150855.48   -149636.53 
   32600    521.66543   -69.642277      2204118          147  0.007193656   -150842.84   -149608.18 
   32700    504.36087    151.15726      2204118          147  0.007193656   -150753.19   -149559.49 
   32800    503.21741    180.40547      2204118          147  0.007193656   -150685.38   -149494.38 
   32900    522.93804    49.640701      2204118          147  0.007193656   -150762.57    -149524.9 
   33000    497.03791   -67.508919      2204118          147  0.007193656   -150798.82   -149622.45 
   33100    502.67663   -25.891415      2204118          147  0.007193656    -150819.4   -149629.69 
   33200    507.84723   -9.3249053      2204118          147  0.007193656   -150819.26    -149617.3 
   33300    494.09494    54.452795      2204118          147  0.007193656   -150767.31   -149597.91 
   33400    506.20689   -88.339993      2204118          147  0.007193656   -150760.39   -149562.32 
   33500    520.83006   -79.661116      2204118          147  0.007193656   -150741.46   -149508.78 
   33600     493.6247    29.986874      2204118          147  0.007193656   -150718.31   -149550.02 
   33700    492.05766   -67.855555      2204118          147  0.007193656   -150796.04   -149631.46 
   33800    496.30459    47.731638      2204118          147  0.007193656   -150808.79   -149634.16 
   33900    482.95604    127.02923      2204118          147  0.007193656   -150753.33   -149610.29 
   34000     502.8315    10.892685      2204118          147  0.007193656   -150754.11   -149564.02 
   34100    533.83152   -134.48768      2204118          147  0.007193656   -150763.33   -149499.88 
   34200    550.68504    8.9846388      2204118          147  0.007193656   -150769.99   -149466.65 
   34300    521.23188    115.79208      2204118          147  0.007193656   -150806.72   -149573.08 
   34400     491.9402    25.280363      2204118          147  0.007193656   -150777.24   -149612.94 
   34500    483.68257   -123.67104      2204118          147  0.007193656   -150770.85   -149626.09 
   34600    486.69103   -72.199208      2204118          147  0.007193656   -150760.14   -149608.26 
   34700    523.30633   -15.414544      2204118          147  0.007193656   -150798.78   -149560.24 
   34800    514.28077   -32.877878      2204118          147  0.007193656   -150737.82   -149520.64 
   34900    503.22549    22.796691      2204118          147  0.007193656   -150758.45   -149567.43 
   35000    501.96519   -66.758146      2204118          147  0.007193656   -150827.23    -149639.2 
   35100    527.61347    13.906062      2204118          147  0.007193656   -150885.83   -149637.09 
   35200    525.82535    189.66169      2204118          147  0.007193656   -150861.84   -149617.33 
   35300     514.1328   -48.518825      2204118          147  0.007193656   -150746.17   -149529.34 
   35400    513.25623   -73.454163      2204118          147  0.007193656   -150731.95    -149517.2 
   35500    490.72372   -12.516551      2204118          147  0.007193656   -150713.05   -149551.62 
   35600    509.32366    77.113935      2204118          147  0.007193656   -150805.59   -149600.14 
   35700    504.50665    12.883897      2204118          147  0.007193656   -150832.32   -149638.27 
   35800    464.17692   -217.15827      2204118          147  0.007193656   -150739.08   -149640.48 
   35900    501.59449   -46.384165      2204118          147  0.007193656    -150806.3   -149619.14 
   36000    517.41112   -35.687084      2204118          147  0.007193656    -150833.6   -149609.01 
   36100    492.56712   -49.776342      2204118          147  0.007193656   -150778.92   -149613.13 
   36200    506.83219    27.351003      2204118          147  0.007193656   -150810.61   -149611.05 
   36300    503.52064    179.43651      2204118          147  0.007193656   -150798.01    -149606.3 
   36400    499.84745   -12.772231      2204118          147  0.007193656   -150795.76   -149612.74 
   36500    486.46801   -106.11332      2204118          147  0.007193656   -150763.24   -149611.89 
   36600    498.93197   -27.292251      2204118          147  0.007193656    -150796.7   -149615.85 
   36700     493.3259    61.248677      2204118          147  0.007193656   -150791.24   -149623.66 
   36800    485.67809   -130.01012      2204118          147  0.007193656   -150772.47   -149622.98 
   36900    494.97841   -167.81516      2204118          147  0.007193656      -150785    -149613.5 
   37000    513.96163   -56.733918      2204118          147  0.007193656   -150817.72   -149601.29 
   37100     500.1626     59.08196      2204118          147  0.007193656   -150739.11   -149555.34 
   37200    513.73178   -52.597257      2204118          147  0.007193656   -150728.08    -149512.2 
   37300     501.1604   -130.04966      2204118          147  0.007193656   -150738.92   -149552.79 
   37400    480.95431   -57.582717      2204118          147  0.007193656   -150772.01    -149633.7 
   37500    510.28919    79.496398      2204118          147  0.007193656   -150843.02   -149635.28 
   37600    496.33193    169.09492      2204118          147  0.007193656    -150801.6    -149626.9 
   37700    487.99241   -242.17782      2204118          147  0.007193656   -150765.93   -149610.96 
   37800    532.69232    -126.1614      2204118          147  0.007193656   -150796.71   -149535.95 
   37900    502.91935    139.49138      2204118          147  0.007193656   -150712.92   -149522.63 
   38000     516.2952   -45.148743      2204118          147  0.007193656    -150813.8   -149591.85 
   38100    493.53516   -192.12731      2204118          147  0.007193656      -150796   -149627.91 
   38200    516.26953   -22.577863      2204118          147  0.007193656   -150840.07   -149618.18 
   38300    499.21759    84.408049      2204118          147  0.007193656   -150789.02   -149607.49 
   38400    500.41935    54.571904      2204118          147  0.007193656   -150767.26   -149582.89 
   38500    490.37075   -43.747157      2204118          147  0.007193656   -150749.49    -149588.9 
   38600     520.2097   -171.44538      2204118          147  0.007193656    -150823.1   -149591.89 
   38700    501.00575   -44.722014      2204118          147  0.007193656   -150784.93   -149599.17 
   38800    495.77885       -41.78      2204118          147  0.007193656   -150789.96   -149616.57 
   38900    484.46831   -79.698392      2204118          147  0.007193656   -150791.42    -149644.8 
   39000    507.17244    45.524246      2204118          147  0.007193656   -150827.87   -149627.51 
   39100    504.34091    212.16047      2204118          147  0.007193656   -150751.94   -149558.28 
   39200    484.62862    73.629541      2204118          147  0.007193656   -150678.82   -149531.82 
   39300    506.52851   -2.6030325      2204118          147  0.007193656   -150740.71   -149541.87 
   39400    514.46577   -19.195063      2204118          147  0.007193656   -150850.87   -149633.25 
   39500    478.76697   -107.21541      2204118          147  0.007193656   -150808.82   -149675.69 
   39600    469.50582   -13.257085      2204118          147  0.007193656   -150759.11    -149647.9 
   39700    498.22743   -78.248125      2204118          147  0.007193656   -150749.43   -149570.24 
   39800    502.34561    58.191538      2204118          147  0.007193656   -150757.01   -149568.07 
   39900    493.43172    64.166723      2204118          147  0.007193656   -150759.94    -149592.1 
   40000     497.5028   -22.116258      2204118          147  0.007193656   -150784.55   -149607.08 
   40100    507.40257   -106.40963      2204118          147  0.007193656   -150868.95   -149668.05 
   40200    476.10232   -84.850588      2204118          147  0.007193656   -150839.06   -149712.24 
   40300    486.96388   -96.301104      2204118          147  0.007193656   -150818.82   -149666.29 
   40400    511.62187   -75.416275      2204118          147  0.007193656   -150813.87   -149602.98 
   40500     510.2432   -103.24996      2204118          147  0.007193656   -150785.83   -149578.21 
   40600    520.45583   -69.295764      2204118          147  0.007193656   -150828.65   -149596.86 
   40700    492.39669    107.84093      2204118          147  0.007193656   -150829.51   -149664.12 
   40800    477.45669   -128.16095      2204118          147  0.007193656   -150842.92    -149712.9 
   40900    473.80648    131.86219      2204118          147  0.007193656   -150850.19    -149728.8 
   41000    478.04988   -56.080771      2204118          147  0.007193656   -150775.29   -149643.86 
   41100    517.49874   -21.636203      2204118          147  0.007193656   -150807.74   -149582.95 
   41200    537.25062   -25.318836      2204118          147  0.007193656   -150829.26   -149557.72 
   41300    494.43774   -17.269008      2204118          147  0.007193656   -150742.13   -149571.91 
   41400    499.14752   -140.17202      2204118          147  0.007193656   -150827.36      -149646 
   41500    502.85291    26.626126      2204118          147  0.007193656   -150860.25   -149670.11 
   41600    496.77052     106.6577      2204118          147  0.007193656   -150818.53   -149642.79 
   41700    498.30554   -262.98988      2204118          147  0.007193656   -150802.42   -149623.04 
   41800    521.86807   -39.103992      2204118          147  0.007193656   -150839.32   -149604.18 
   41900    509.47475     66.21583      2204118          147  0.007193656   -150789.69   -149583.88 
   42000    502.78278   -5.0318238      2204118          147  0.007193656   -150775.62   -149585.65 
   42100    488.08407    135.14134      2204118          147  0.007193656   -150797.68    -149642.5 
   42200    496.45801   -148.47596      2204118          147  0.007193656   -150844.89   -149669.89 
   42300    474.37438   -73.058787      2204118          147  0.007193656   -150742.97   -149620.23 
   42400    483.25783   -39.970555      2204118          147  0.007193656   -150722.68   -149578.93 
   42500    518.89452    67.987863      2204118          147  0.007193656   -150786.67   -149558.57 
   42600    519.04911   0.59042097      2204118          147  0.007193656   -150789.18   -149560.71 
   42700    524.36285   -79.483545      2204118          147  0.007193656   -150812.23   -149571.19 
   42800    487.42587    84.840858      2204118          147  0.007193656    -150724.9   -149571.28 
   42900    509.18881    100.92077      2204118          147  0.007193656   -150816.39   -149611.27 
   43000    519.97061     31.16282      2204118          147  0.007193656   -150919.66   -149689.01 
   43100    452.82371   -17.256443      2204118          147  0.007193656   -150809.36   -149737.63 
   43200    511.12032   -61.790024      2204118          147  0.007193656   -150882.93   -149673.23 
   43300    491.92313    127.40678      2204118          147  0.007193656   -150774.32   -149610.06 
   43400    496.86855   -82.152428      2204118          147  0.007193656   -150749.54   -149573.57 
   43500    511.15615   -36.105739      2204118          147  0.007193656   -150762.34   -149552.56 
   43600    520.85336   -78.737674      2204118          147  0.007193656   -150797.62   -149564.88 
   43700     498.1218    122.39916      2204118          147  0.007193656   -150819.09   -149640.15 
   43800    469.56886    137.81498      2204118          147  0.007193656   -150793.27   -149681.91 
   43900    476.14992   -95.061543      2204118          147  0.007193656   -150774.82   -149647.89 
   44000    513.28089   -116.29688      2204118          147  0.007193656   -150793.66   -149578.84 
   44100    507.08546    17.629706      2204118          147  0.007193656   -150769.04   -149568.88 
   44200    517.88032    77.911268      2204118          147  0.007193656   -150801.77   -149576.07 
   44300    497.46593    13.935515      2204118          147  0.007193656   -150795.85   -149618.47 
   44400    484.72095    20.690074      2204118          147  0.007193656   -150812.07   -149664.85 
   44500    463.90702    7.3267134      2204118          147  0.007193656   -150820.14   -149722.19 
   44600     479.0837    33.588393      2204118          147  0.007193656   -150832.76   -149698.88 
   44700    466.38939    13.246774      2204118          147  0.007193656   -150700.99   -149597.15 
   44800    495.42859   -66.284445      2204118          147  0.007193656   -150749.74   -149577.18 
   44900    543.43864    13.052716      2204118          147  0.007193656   -150847.31   -149561.12 
   45000    497.24255    2.5921851      2204118          147  0.007193656    -150770.8   -149593.94 
   45100    505.09117   -79.509256      2204118          147  0.007193656   -150845.51   -149650.08 
   45200    487.94239    46.799398      2204118          147  0.007193656   -150830.73   -149675.89 
   45300    500.13342    187.86792      2204118          147  0.007193656   -150803.08   -149619.39 
   45400    482.05911    71.955483      2204118          147  0.007193656   -150681.59   -149540.67 
   45500    501.51568     14.99657      2204118          147  0.007193656   -150709.69   -149522.72 
   45600    505.12025    18.712066      2204118          147  0.007193656   -150773.84   -149578.34 
   45700    492.84685  0.061339768      2204118          147  0.007193656   -150804.07   -149637.62 
   45800    502.16586   -55.672317      2204118          147  0.007193656   -150809.98   -149621.48 
   45900    494.06439    11.395743      2204118          147  0.007193656   -150752.34   -149583.01 
   46000    528.01155    76.892925      2204118          147  0.007193656    -150799.9   -149550.22 
   46100    490.51366    85.769919      2204118          147  0.007193656   -150735.35   -149574.42 
   46200    486.07536   -93.812421      2204118          147  0.007193656   -150814.04   -149663.61 
   46300     493.5377   -90.458426      2204118          147  0.007193656   -150833.67   -149665.59 
   46400    487.60203    108.32954      2204118          147  0.007193656   -150765.38   -149611.35 
   46500    490.70835    55.114916      2204118          147  0.007193656   -150716.76   -149555.37 
   46600    495.67199     1.470551      2204118          147  0.007193656   -150721.29   -149548.15 
   46700    498.03432   -43.412961      2204118          147  0.007193656   -150753.24   -149574.51 
   46800     505.2638    70.999993      2204118          147  0.007193656   -150779.48   -149583.64 
   46900    515.07961    34.715871      2204118          147  0.007193656   -150834.51   -149615.44 
   47000    466.96099   -88.619998      2204118          147  0.007193656   -150787.74   -149682.56 
   47100    484.40152   -112.91383      2204118          147  0.007193656   -150864.15   -149717.69 
   47200    494.22306    11.068966      2204118          147  0.007193656   -150812.33   -149642.62 
   47300    508.89552    11.118595      2204118          147  0.007193656   -150803.74   -149599.31 
   47400    471.49397    -181.9499      2204118          147  0.007193656   -150696.25   -149580.34 
   47500    513.67975   -132.43988      2204118          147  0.007193656   -150765.98   -149550.22 
   47600    497.55169    109.42808      2204118          147  0.007193656   -150694.03   -149516.44 
   47700    532.28696    59.308953      2204118          147  0.007193656   -150789.32   -149529.53 
   47800     513.1963    -53.94334      2204118          147  0.007193656   -150832.22   -149617.61 
   47900    471.49881   -92.577506      2204118          147  0.007193656   -150762.04   -149646.11 
   48000    490.59437    9.6565614      2204118          147  0.007193656   -150774.73   -149613.61 
   48100    529.64062   -8.5081772      2204118          147  0.007193656   -150813.32   -149559.79 
   48200    537.39714   -226.71058      2204118          147  0.007193656   -150780.95   -149509.05 
   48300    529.95796    86.805767      2204118          147  0.007193656   -150695.29      -149441 
   48400    544.92112    11.437621      2204118          147  0.007193656    -150762.5    -149472.8 
   48500     512.8754    98.705903      2204118          147  0.007193656   -150779.74   -149565.89 
   48600    513.02629   -100.42529      2204118          147  0.007193656   -150819.34   -149605.13 
   48700    488.87865    103.35672      2204118          147  0.007193656   -150788.76    -149631.7 
   48800    492.54345   -64.634196      2204118          147  0.007193656   -150800.87   -149635.14 
   48900     495.2255    33.289198      2204118          147  0.007193656   -150767.23   -149595.15 
   49000    495.53847    7.7071015      2204118          147  0.007193656   -150704.56   -149531.74 
   49100    535.06856   -116.43891      2204118          147  0.007193656   -150790.69   -149524.31 
   49200    513.85927    132.65335      2204118          147  0.007193656   -150832.35   -149616.17 
   49300    470.86591    37.297023      2204118          147  0.007193656   -150774.03   -149659.61 
   49400    473.12271   -73.712686      2204118          147  0.007193656      -150749   -149629.23 
   49500    517.93131   -79.831316      2204118          147  0.007193656   -150796.45   -149570.63 
   49600     534.4955   -57.221932      2204118          147  0.007193656   -150822.12   -149557.09 
   49700    483.45452   -42.399945      2204118          147  0.007193656   -150737.46   -149593.23 
   49800    476.10709    27.057013      2204118          147  0.007193656   -150815.09   -149688.26 
   49900     482.9209    103.59083      2204118          147  0.007193656   -150830.34   -149687.38 
   50000    487.58904    237.50385      2204118          147  0.007193656   -150778.68   -149624.67 
   50100    486.44299   -43.320581      2204118          147  0.007193656   -150741.44   -149590.14 
   50200    522.58443     65.64678      2204118          147  0.007193656   -150818.09   -149581.26 
   50300    489.70712    64.789365      2204118          147  0.007193656   -150737.36   -149578.34 
   50400    490.13929     40.46173      2204118          147  0.007193656   -150754.06   -149594.02 
   50500    482.91492   -95.465219      2204118          147  0.007193656   -150813.97   -149671.03 
   50600    480.33059   -56.781696      2204118          147  0.007193656   -150833.01   -149696.18 
   50700     487.7743    59.904497      2204118          147  0.007193656   -150792.29   -149637.84 
   50800    489.11586    82.085399      2204118          147  0.007193656   -150734.07   -149576.45 
   50900    501.03437   -53.270749      2204118          147  0.007193656   -150756.24   -149570.41 
   51000    503.82487   -40.581326      2204118          147  0.007193656   -150788.57   -149596.14 
   51100    489.09363    38.127578      2204118          147  0.007193656   -150815.61   -149658.04 
   51200    491.47416    49.898754      2204118          147  0.007193656   -150856.26   -149693.05 
   51300    483.16781    79.716667      2204118          147  0.007193656   -150818.27   -149674.73 
   51400    513.69908   -117.06172      2204118          147  0.007193656   -150856.43   -149640.63 
   51500    482.77013    15.488791      2204118          147  0.007193656    -150758.1    -149615.5 
   51600    492.09479   -95.431726      2204118          147  0.007193656   -150727.36   -149562.69 
   51700    525.68857   -52.407227      2204118          147  0.007193656   -150767.23   -149523.05 
   51800    517.18882   -7.7609081      2204118          147  0.007193656    -150796.9   -149572.83 
   51900    510.16263   -19.559473      2204118          147  0.007193656   -150860.45   -149653.01 
   52000    482.59352    27.184122      2204118          147  0.007193656   -150806.61   -149664.43 
   52100    516.09663   -119.26792      2204118          147  0.007193656   -150854.13   -149632.65 
   52200    518.95928   -124.89723      2204118          147  0.007193656   -150793.62   -149565.36 
   52300    480.73411    107.35575      2204118          147  0.007193656   -150689.87   -149552.08 
   52400    476.21233   -85.404209      2204118          147  0.007193656   -150724.25   -149597.17 
   52500    470.04461     39.39939      2204118          147  0.007193656   -150798.98   -149686.49 
   52600    468.19703    61.790794      2204118          147  0.007193656   -150792.72   -149684.61 
   52700    491.30031   -64.671766      2204118          147  0.007193656   -150788.97   -149626.18 
   52800    491.73079   -86.363281      2204118          147  0.007193656   -150749.67   -149585.86 
   52900    533.34583   -61.102585      2204118          147  0.007193656   -150822.85   -149560.55 
   53000    489.35818    33.397364      2204118          147  0.007193656   -150745.61   -149587.41 
   53100    476.80925    11.225204      2204118          147  0.007193656   -150815.67   -149687.18 
   53200    493.16067    67.967569      2204118          147  0.007193656   -150856.92   -149689.73 
   53300    501.42728    15.903013      2204118          147  0.007193656   -150837.04   -149650.28 
   53400    508.96399   -22.583224      2204118          147  0.007193656   -150786.59      -149582 
   53500    488.94578    24.626229      2204118          147  0.007193656   -150728.49   -149571.27 
   53600    488.54659    2.2240588      2204118          147  0.007193656   -150745.95   -149589.67 
   53700    488.04227    62.544146      2204118          147  0.007193656   -150784.92   -149629.84 
   53800    506.51164   -29.647546      2204118          147  0.007193656      -150855    -149656.2 
   53900    523.42181   -11.095134      2204118          147  0.007193656   -150802.79   -149563.98 
   54000    531.36032    72.829464      2204118          147  0.007193656   -150769.84   -149512.23 
   54100    480.82308   0.90519521      2204118          147  0.007193656   -150696.83   -149558.84 
   54200    495.83651   -39.454298      2204118          147  0.007193656   -150798.46   -149624.93 
   54300     490.8124    44.161512      2204118          147  0.007193656   -150803.08   -149641.45 
   54400    462.78312    70.311742      2204118          147  0.007193656   -150739.51   -149644.21 
   54500      497.063    62.274284      2204118          147  0.007193656   -150756.93    -149580.5 
   54600    522.59178   -55.832518      2204118          147  0.007193656   -150757.95    -149521.1 
   54700    522.17775   -63.847405      2204118          147  0.007193656   -150780.62   -149544.75 
   54800    490.94512    16.477459      2204118          147  0.007193656   -150786.54   -149624.59 
   54900    512.41899   -38.434263      2204118          147  0.007193656   -150846.47   -149633.69 
   55000    488.31812     -125.129      2204118          147  0.007193656   -150779.59   -149623.86 
   55100    484.74733   -74.457556      2204118          147  0.007193656   -150723.92   -149576.64 
   55200     501.3672    98.095128      2204118          147  0.007193656   -150707.19   -149520.57 
   55300    493.06636    164.52258      2204118          147  0.007193656   -150704.82   -149537.85 
   55400     494.4919   -110.27268      2204118          147  0.007193656   -150810.36   -149640.02 
   55500    498.31251   -101.37719      2204118          147  0.007193656   -150825.03   -149645.65 
   55600    509.07687    76.043169      2204118          147  0.007193656   -150806.63   -149601.76 
   55700    506.12183    118.62238      2204118          147  0.007193656   -150771.39   -149573.52 
   55800    517.26742    91.539537      2204118          147  0.007193656   -150849.36   -149625.11 
   55900    491.88165   -163.44969      2204118          147  0.007193656   -150863.58   -149699.41 
   56000    493.22353   -29.123247      2204118          147  0.007193656    -150848.8   -149681.45 
   56100    500.08513    221.49542      2204118          147  0.007193656    -150814.8   -149631.22 
   56200    513.05861    187.09263      2204118          147  0.007193656   -150812.81   -149598.52 
   56300    496.89893    -98.66928      2204118          147  0.007193656   -150772.84    -149596.8 
   56400    496.96775   -163.66681      2204118          147  0.007193656   -150810.67   -149634.46 
   56500    480.99034    100.35793      2204118          147  0.007193656   -150848.82   -149710.43 
   56600    493.68549    173.24487      2204118          147  0.007193656    -150870.5   -149702.07 
   56700    480.48986   -99.341461      2204118          147  0.007193656   -150770.32   -149633.12 
   56800    523.58111   -81.081894      2204118          147  0.007193656   -150818.96   -149579.76 
   56900     515.2609    85.242285      2204118          147  0.007193656   -150809.95   -149590.45 
   57000    486.25043   -21.397007      2204118          147  0.007193656    -150793.1   -149642.26 
   57100    491.59013   -51.936376      2204118          147  0.007193656   -150867.03   -149703.55 
   57200    496.07115    5.4650394      2204118          147  0.007193656   -150869.77   -149695.68 
   57300    503.04395    23.260588      2204118          147  0.007193656   -150856.44   -149665.86 
   57400    502.47349   -103.19221      2204118          147  0.007193656   -150830.09   -149640.86 
   57500    498.29727   -137.62876      2204118          147  0.007193656   -150802.57   -149623.22 
   57600    538.90595   -58.334097      2204118          147  0.007193656   -150838.56    -149563.1 
   57700    510.67586    155.97623      2204118          147  0.007193656   -150730.66   -149522.01 
   57800    497.87329    25.921983      2204118          147  0.007193656   -150761.02   -149582.68 
   57900    483.78196   -45.074844      2204118          147  0.007193656   -150784.29   -149639.29 
   58000    526.98124   -211.02736      2204118          147  0.007193656   -150886.84    -149639.6 
   58100    510.81319    -14.89167      2204118          147  0.007193656   -150842.34   -149633.37 
   58200    501.86078    52.287271      2204118          147  0.007193656   -150793.82   -149606.04 
   58300    508.51816    187.59883      2204118          147  0.007193656    -150781.5   -149577.96 
   58400    506.73956   -100.25018      2204118          147  0.007193656   -150779.74    -149580.4 
   58500    503.53321     171.2286      2204118          147  0.007193656   -150839.23   -149647.48 
   58600      495.629      100.316      2204118          147  0.007193656   -150867.33   -149694.29 
   58700    497.31089   -103.75281      2204118          147  0.007193656   -150856.77   -149679.75 
   58800     484.0338    -184.1636      2204118          147  0.007193656   -150756.92   -149611.32 
   58900    505.07449   -45.323469      2204118          147  0.007193656   -150781.61   -149586.21 
   59000    518.53671    234.30031      2204118          147  0.007193656   -150837.82   -149610.56 
   59100    511.32893   -102.23296      2204118          147  0.007193656    -150862.6   -149652.41 
   59200    502.23761   -78.201414      2204118          147  0.007193656   -150858.24   -149669.56 
   59300    507.66688    178.48385      2204118          147  0.007193656   -150835.81   -149634.28 
   59400    518.95683   -125.53528      2204118          147  0.007193656   -150784.61   -149556.36 
   59500      528.816    -37.65158      2204118          147  0.007193656   -150795.47   -149543.89 
   59600    513.75206    27.342569      2204118          147  0.007193656   -150834.26   -149618.33 
   59700    535.10905    82.955224      2204118          147  0.007193656    -150914.4   -149647.92 
   59800    496.03121     33.23588      2204118          147  0.007193656   -150834.06   -149660.07 
   59900    492.03535   -87.910628      2204118          147  0.007193656   -150809.38   -149644.85 
   60000    517.77958    13.333956      2204118          147  0.007193656   -150798.51   -149573.05 
   60100    526.97931     24.73193      2204118          147  0.007193656   -150792.46   -149545.22 
   60200    496.30956    24.521733      2204118          147  0.007193656   -150795.03   -149620.38 
   60300    471.35549    65.172186      2204118          147  0.007193656   -150783.14   -149667.55 
   60400    512.00491   -7.2463475      2204118          147  0.007193656   -150869.71   -149657.91 
   60500    518.87738    124.51192      2204118          147  0.007193656   -150842.31   -149614.25 
   60600     505.3822    116.75691      2204118          147  0.007193656   -150787.14   -149591.02 
   60700    501.15157    30.130544      2204118          147  0.007193656   -150816.42   -149630.32 
   60800    474.85816    -6.056005      2204118          147  0.007193656   -150827.23   -149703.36 
   60900    477.10715    122.58559      2204118          147  0.007193656   -150829.26   -149700.06 
   61000    508.46291   -50.758823      2204118          147  0.007193656   -150858.64   -149655.23 
   61100    474.72973    93.031126      2204118          147  0.007193656   -150710.87   -149587.29 
   61200    518.23947    -56.17447      2204118          147  0.007193656   -150783.91   -149557.36 
   61300    478.49246     65.92931      2204118          147  0.007193656    -150724.7   -149592.22 
   61400    489.83984   -49.134005      2204118          147  0.007193656   -150802.85   -149643.52 
   61500     501.3367   -46.483832      2204118          147  0.007193656   -150864.33   -149677.78 
   61600    469.71334   -53.903223      2204118          147  0.007193656   -150790.41    -149678.7 
   61700    485.36349    71.257217      2204118          147  0.007193656   -150749.32   -149600.57 
   61800    526.45083     30.90915      2204118          147  0.007193656   -150788.42   -149542.44 
   61900    519.00007   -44.700904      2204118          147  0.007193656   -150791.64   -149563.29 
   62000    509.99048     234.3762      2204118          147  0.007193656   -150812.83    -149605.8 
   62100    508.60989   -77.214736      2204118          147  0.007193656   -150826.67   -149622.91 
   62200    484.37389   -66.957481      2204118          147  0.007193656   -150782.29    -149635.9 
   62300    512.57433   -43.300493      2204118          147  0.007193656   -150851.55    -149638.4 
   62400    500.86312    112.19216      2204118          147  0.007193656    -150838.6   -149653.17 
   62500    505.05744    29.452411      2204118          147  0.007193656   -150842.79   -149647.43 
   62600    513.90936   -124.57738      2204118          147  0.007193656   -150772.73   -149556.43 
   62700    509.01083   -96.539647      2204118          147  0.007193656   -150726.45   -149521.74 
   62800    521.15847     56.67712      2204118          147  0.007193656   -150807.97   -149574.51 
   62900    507.62297    35.795386      2204118          147  0.007193656   -150838.75   -149637.32 
   63000    484.55437   -35.984204      2204118          147  0.007193656   -150793.71   -149646.89 
   63100    512.65925   -27.038181      2204118          147  0.007193656   -150828.31   -149614.97 
   63200    519.97438    97.172036      2204118          147  0.007193656   -150823.32   -149592.66 
   63300     523.7879   -71.419692      2204118          147  0.007193656   -150809.23   -149569.54 
   63400    499.31602   -193.37973      2204118          147  0.007193656   -150758.15   -149576.39 
   63500    498.29362   -177.19092      2204118          147  0.007193656    -150772.4   -149593.05 
   63600    488.77533    61.825209      2204118          147  0.007193656   -150803.93   -149647.11 
   63700    475.18567    66.036577      2204118          147  0.007193656   -150819.61   -149694.95 
   63800    490.13868    -82.29768      2204118          147  0.007193656   -150828.45   -149668.41 
   63900    500.37611   -179.34643      2204118          147  0.007193656    -150773.6   -149589.33 
   64000    504.08076   -37.284385      2204118          147  0.007193656   -150742.93   -149549.89 
   64100    516.34659   -82.256185      2204118          147  0.007193656   -150801.66   -149579.59 
   64200    512.92417   -56.791062      2204118          147  0.007193656   -150840.53   -149626.56 
   64300    483.67306    -29.43497      2204118          147  0.007193656   -150802.16   -149657.42 
   64400    510.77159    134.99973      2204118          147  0.007193656   -150861.34   -149652.47 
   64500    501.46773    121.85878      2204118          147  0.007193656    -150774.6   -149587.74 
   64600    537.63635   -2.2769091      2204118          147  0.007193656   -150801.01   -149528.56 
   64700    520.80936   -87.135031      2204118          147  0.007193656   -150803.45   -149570.81 
   64800    485.24661   -22.847812      2204118          147  0.007193656    -150777.6   -149629.14 
   64900    515.66074   -4.2107532      2204118          147  0.007193656   -150872.45      -149652 
   65000    512.01796   -71.450427      2204118          147  0.007193656   -150866.89   -149655.07 
   65100    492.50249   -166.84574      2204118          147  0.007193656   -150789.15   -149623.51 
   65200    510.03296   -17.171079      2204118          147  0.007193656   -150738.73    -149531.6 
   65300    533.06044    7.2271502      2204118          147  0.007193656   -150740.58   -149478.95 
   65400    515.44461    33.570277      2204118          147  0.007193656   -150739.45   -149519.52 
   65500     514.5341   -24.154844      2204118          147  0.007193656   -150800.16   -149582.38 
   65600    484.36109    27.359124      2204118          147  0.007193656   -150780.97    -149634.6 
   65700     463.5168    188.64195      2204118          147  0.007193656   -150759.55   -149662.52 
   65800    496.17972    62.028078      2204118          147  0.007193656    -150829.8   -149655.46 
   65900    504.37852   -81.285427      2204118          147  0.007193656   -150806.83   -149613.09 
   66000    506.65411   -142.97412      2204118          147  0.007193656    -150728.1   -149528.97 
   66100    512.96314    51.554672      2204118          147  0.007193656   -150755.96    -149541.9 
   66200    507.86506    33.281135      2204118          147  0.007193656   -150805.61   -149603.62 
   66300    491.79556    51.576086      2204118          147  0.007193656   -150802.47   -149638.51 
   66400    475.91531   -99.656491      2204118          147  0.007193656   -150765.07   -149638.69 
   66500    511.22143     197.0768      2204118          147  0.007193656   -150829.78   -149619.84 
   66600      491.399   -19.310213      2204118          147  0.007193656   -150755.86   -149592.84 
   66700    500.17834   -45.404024      2204118          147  0.007193656   -150701.39   -149517.59 
   66800    501.06196    -38.69354      2204118          147  0.007193656   -150694.48   -149508.58 
   66900    518.60546    79.257062      2204118          147  0.007193656   -150815.13   -149587.72 
   67000    510.40027    3.2644682      2204118          147  0.007193656   -150837.22   -149629.22 
   67100    488.65015   -34.013485      2204118          147  0.007193656   -150799.96   -149643.44 
   67200    486.27738   -93.203239      2204118          147  0.007193656    -150776.6   -149625.69 
   67300    501.35714    172.86736      2204118          147  0.007193656   -150752.49    -149565.9 
   67400     517.0391    -33.34384      2204118          147  0.007193656   -150735.06   -149511.35 
   67500    507.58337   -32.890034      2204118          147  0.007193656    -150740.6   -149539.27 
   67600    519.75026   -115.17637      2204118          147  0.007193656   -150872.36   -149642.23 
   67700    501.84666    52.172034      2204118          147  0.007193656   -150833.93   -149646.18 
   67800    484.93507   -108.54277      2204118          147  0.007193656   -150763.54   -149615.81 
   67900    508.21096   -158.94303      2204118          147  0.007193656   -150775.52   -149572.71 
   68000    527.93162   -73.161813      2204118          147  0.007193656   -150793.49   -149544.01 
   68100    518.93855    196.73639      2204118          147  0.007193656   -150836.13   -149607.93 
   68200    499.86365    35.666108      2204118          147  0.007193656   -150858.14   -149675.08 
   68300    513.94394   -172.65409      2204118          147  0.007193656   -150876.53   -149660.14 
   68400    519.54695    42.081087      2204118          147  0.007193656   -150818.76   -149589.11 
   68500    499.15407    87.283066      2204118          147  0.007193656   -150763.33   -149581.95 
   68600    523.10477   -11.458682      2204118          147  0.007193656   -150853.04   -149614.97 
   68700    497.71656   -83.320488      2204118          147  0.007193656   -150817.25   -149639.28 
   68800    465.06298    213.10658      2204118          147  0.007193656   -150739.85   -149639.16 
   68900    514.34494    19.191694      2204118          147  0.007193656   -150852.84   -149635.51 
   69000    509.80276   -152.94438      2204118          147  0.007193656   -150848.49   -149641.91 
   69100    489.48323   -4.7201022      2204118          147  0.007193656   -150823.32   -149664.82 
   69200    488.31727    36.294518      2204118          147  0.007193656   -150841.23    -149685.5 
   69300    483.98576    72.102201      2204118          147  0.007193656   -150806.13   -149660.65 
   69400    493.85331   -179.91768      2204118          147  0.007193656   -150779.46   -149610.62 
   69500    523.16949   -146.24899      2204118          147  0.007193656   -150798.15   -149559.93 
   69600    537.46233    174.97731      2204118          147  0.007193656   -150846.28   -149574.23 
   69700    501.25011   -48.856843      2204118          147  0.007193656   -150837.36   -149651.02 
   69800    493.94687   -143.36195      2204118          147  0.007193656    -150839.6   -149670.54 
   69900      504.714   -20.716996      2204118          147  0.007193656   -150846.76   -149652.22 
   70000    514.78642   -34.826224      2204118          147  0.007193656   -150815.22   -149596.84 
   70100    523.47832    55.034291      2204118          147  0.007193656   -150803.26   -149564.31 
   70200    521.56059   -23.137652      2204118          147  0.007193656   -150809.28   -149574.87 
   70300    499.16529    1.9758885      2204118          147  0.007193656   -150853.73   -149672.32 
   70400    487.66343    81.706205      2204118          147  0.007193656   -150849.36   -149695.17 
   70500     473.4288     153.0535      2204118          147  0.007193656   -150781.11   -149660.61 
   70600    494.69869   -113.35765      2204118          147  0.007193656   -150763.32   -149592.49 
   70700    512.22625    153.69181      2204118          147  0.007193656   -150790.53   -149578.21 
   70800    499.93409   -28.729995      2204118          147  0.007193656   -150793.71   -149610.48 
   70900    477.86221    -77.37524      2204118          147  0.007193656   -150760.76   -149629.77 
   71000    509.36694   -101.52407      2204118          147  0.007193656   -150829.94   -149624.39 
   71100    510.29159    74.048221      2204118          147  0.007193656   -150839.48   -149631.74 
   71200    481.51289    42.404612      2204118          147  0.007193656   -150809.32   -149669.69 
   71300    474.08086   -65.342089      2204118          147  0.007193656   -150867.31   -149745.27 
   71400    505.63877    31.331832      2204118          147  0.007193656   -150920.16   -149723.44 
   71500    488.57996    52.278417      2204118          147  0.007193656   -150812.07   -149655.72 
   71600    486.04702   -2.9772184      2204118          147  0.007193656   -150780.38   -149630.02 
   71700    499.95981   -66.115882      2204118          147  0.007193656   -150789.57   -149606.28 
   71800    491.57314    -2.222473      2204118          147  0.007193656   -150759.58   -149596.14 
   71900    492.23705   -2.5264387      2204118          147  0.007193656   -150797.28   -149632.27 
   72000    486.69235   -30.265164      2204118          147  0.007193656   -150839.41   -149687.52 
   72100    490.36524    40.401525      2204118          147  0.007193656   -150878.48    -149717.9 
   72200    516.39288    22.366751      2204118          147  0.007193656   -150908.76   -149686.58 
   72300    501.90022   -140.05244      2204118          147  0.007193656   -150796.54   -149608.66 
   72400    508.02432   -28.229716      2204118          147  0.007193656   -150803.22   -149600.85 
   72500    492.69059    117.02137      2204118          147  0.007193656   -150796.79   -149630.71 
   72600    516.17846    132.99403      2204118          147  0.007193656   -150895.49   -149673.82 
   72700    493.76784   -46.560192      2204118          147  0.007193656   -150871.58   -149702.95 
   72800    472.77401   -30.320233      2204118          147  0.007193656   -150875.86   -149756.92 
   72900    516.16641    125.34193      2204118          147  0.007193656   -150985.64   -149763.99 
   73000     504.4581   -40.666014      2204118          147  0.007193656   -150884.18   -149690.25 
   73100    480.97827   -59.827317      2204118          147  0.007193656   -150765.93   -149627.56 
   73200    486.79485    95.103705      2204118          147  0.007193656   -150759.19   -149607.06 
   73300    513.66355    7.2302553      2204118          147  0.007193656   -150834.43   -149618.71 
   73400    489.91102   -76.253886      2204118          147  0.007193656   -150853.11   -149693.61 
   73500    489.60407    44.714694      2204118          147  0.007193656   -150893.22   -149734.45 
   73600    501.41398     58.00576      2204118          147  0.007193656   -150885.41   -149698.68 
   73700    476.08474    -92.33663      2204118          147  0.007193656   -150781.63   -149654.85 
   73800    480.90655    125.54886      2204118          147  0.007193656   -150778.63   -149640.43 
   73900    509.14317    52.404585      2204118          147  0.007193656   -150826.97   -149621.95 
   74000    524.31044   0.43965753      2204118          147  0.007193656   -150835.25   -149594.33 
   74100    524.65628    91.347965      2204118          147  0.007193656   -150791.18   -149549.44 
   74200    526.97886    94.591774      2204118          147  0.007193656   -150799.06   -149551.82 
   74300    498.75486   -100.09387      2204118          147  0.007193656   -150807.38   -149626.94 
   74400    463.23181   -34.235128      2204118          147  0.007193656   -150763.37   -149667.01 
   74500    516.15492   -47.064854      2204118          147  0.007193656   -150882.71    -149661.1 
   74600    506.37905   -19.692824      2204118          147  0.007193656   -150854.19   -149655.71 
   74700    493.53652   -82.226712      2204118          147  0.007193656   -150801.28   -149633.19 
   74800    499.31428    8.3045243      2204118          147  0.007193656   -150769.67   -149587.91 
   74900    499.60127    108.90738      2204118          147  0.007193656   -150731.66   -149549.22 
   75000     480.2894    25.574929      2204118          147  0.007193656   -150745.59   -149608.86 
[...]
  381700    531.41427   -67.848225      2204118          147  0.007193656   -150831.92   -149574.19 
  381800    509.93113    67.129425      2204118          147  0.007193656    -150780.8   -149573.92 
  381900    476.85721    -10.74078      2204118          147  0.007193656    -150783.5   -149654.89 
  382000      492.636    31.370761      2204118          147  0.007193656   -150849.68   -149683.73 
  382100    484.73987   -138.74124      2204118          147  0.007193656   -150830.63   -149683.36 
  382200     514.9607    5.1302648      2204118          147  0.007193656   -150871.52   -149652.73 
  382300    505.73158    124.94561      2204118          147  0.007193656    -150814.8   -149617.85 
  382400    516.55487   -69.459564      2204118          147  0.007193656   -150824.82   -149602.26 
  382500    467.23222    5.7674252      2204118          147  0.007193656   -150750.33    -149644.5 
  382600    486.02974   -76.322604      2204118          147  0.007193656   -150860.07   -149709.75 
  382700    472.24248    189.88997      2204118          147  0.007193656   -150863.87   -149746.18 
  382800    495.79598    24.687411      2204118          147  0.007193656   -150896.46   -149723.03 
  382900    512.64817   -52.461976      2204118          147  0.007193656    -150839.4   -149626.09 
  383000    491.61851    60.534584      2204118          147  0.007193656   -150778.66   -149615.11 
  383100     499.5843   -24.243689      2204118          147  0.007193656   -150831.63   -149649.23 
  383200    514.03519   -33.733048      2204118          147  0.007193656   -150915.68   -149699.08 
  383300    490.95078    1.6137275      2204118          147  0.007193656   -150890.19   -149728.23 
  383400    514.52332    21.259638      2204118          147  0.007193656   -150893.83   -149676.07 
  383500    522.56215    50.580526      2204118          147  0.007193656   -150830.01   -149593.23 
  383600    515.79476  -0.75873294      2204118          147  0.007193656    -150830.2   -149609.44 
  383700    492.46376   -46.103639      2204118          147  0.007193656   -150844.38   -149678.84 
  383800      500.628    53.845853      2204118          147  0.007193656   -150889.66   -149704.79 
  383900    481.84877    65.500773      2204118          147  0.007193656   -150831.17   -149690.75 
  384000    488.46278   -76.444555      2204118          147  0.007193656   -150797.75   -149641.68 
  384100    510.27557   -21.056905      2204118          147  0.007193656   -150760.41   -149552.71 
  384200    519.88476    11.343517      2204118          147  0.007193656   -150791.46   -149561.02 
  384300    501.39762    123.31878      2204118          147  0.007193656   -150802.69      -149616 
  384400    498.44166   -103.90107      2204118          147  0.007193656   -150846.21   -149666.52 
  384500    504.59266   -51.915458      2204118          147  0.007193656    -150896.8   -149702.54 
  384600    484.05273    123.42069      2204118          147  0.007193656   -150858.21   -149712.57 
  384700    494.96579    37.596994      2204118          147  0.007193656   -150828.15   -149656.68 
  384800    517.47693   -76.566124      2204118          147  0.007193656   -150806.79   -149582.04 
  384900    506.50884    1.1280379      2204118          147  0.007193656    -150785.9   -149587.11 
  385000    501.85565    123.40003      2204118          147  0.007193656   -150842.11   -149654.34 
  385100    512.56101    86.952152      2204118          147  0.007193656   -150892.93   -149679.82 
  385200    503.65235   -220.24995      2204118          147  0.007193656   -150885.51   -149693.49 
  385300    486.64929   -39.460664      2204118          147  0.007193656   -150821.59    -149669.8 
  385400     523.0206    291.83324      2204118          147  0.007193656   -150870.08   -149632.22 
  385500     536.1398   -118.47154      2204118          147  0.007193656   -150830.17   -149561.25 
  385600    492.68077   -146.99892      2204118          147  0.007193656    -150704.8   -149538.75 
  385700    514.23945    42.859394      2204118          147  0.007193656   -150828.46   -149611.37 
  385800    503.43891    81.915155      2204118          147  0.007193656   -150858.14   -149666.62 
  385900    500.25073    56.386159      2204118          147  0.007193656   -150860.13   -149676.16 
  386000    490.29723   -155.01194      2204118          147  0.007193656   -150830.68   -149670.26 
  386100    510.34386    70.727385      2204118          147  0.007193656   -150835.34   -149627.48 
  386200    496.28949    167.08125      2204118          147  0.007193656   -150738.54   -149563.94 
  386300    531.63619   -31.881844      2204118          147  0.007193656   -150833.32   -149575.06 
  386400    491.84561   -121.13428      2204118          147  0.007193656   -150827.53   -149663.45 
  386500    493.87596   -9.5393329      2204118          147  0.007193656   -150834.36   -149665.48 
  386600    499.12803    32.312539      2204118          147  0.007193656   -150848.58   -149667.26 
  386700    491.28259    96.092021      2204118          147  0.007193656   -150832.12   -149669.37 
  386800    490.78274   -141.94649      2204118          147  0.007193656   -150838.62   -149677.06 
  386900    482.77984    -2.337522      2204118          147  0.007193656   -150811.51   -149668.88 
  387000    491.55102    321.25386      2204118          147  0.007193656   -150823.89    -149660.5 
  387100    499.03152   -63.968689      2204118          147  0.007193656   -150839.33   -149658.24 
  387200    486.83766   -117.52588      2204118          147  0.007193656   -150806.62   -149654.39 
  387300    491.35859    48.904096      2204118          147  0.007193656   -150799.65   -149636.73 
  387400    508.54838    69.851605      2204118          147  0.007193656    -150826.3   -149622.69 
  387500    490.42528    -81.03022      2204118          147  0.007193656   -150827.75   -149667.03 
  387600    496.60998    12.683592      2204118          147  0.007193656   -150888.54   -149713.18 
  387700    498.15247   -66.236553      2204118          147  0.007193656   -150885.86   -149706.85 
  387800    511.03309    112.92834      2204118          147  0.007193656   -150819.91   -149610.42 
  387900    481.90864   -52.672767      2204118          147  0.007193656   -150724.32   -149583.76 
  388000    483.80492   -117.88685      2204118          147  0.007193656      -150758   -149612.95 
  388100    515.19615   -28.906168      2204118          147  0.007193656   -150864.81   -149645.46 
  388200    485.53371    24.642024      2204118          147  0.007193656   -150876.82   -149727.67 
  388300    481.84333    141.92028      2204118          147  0.007193656   -150901.33   -149760.92 
  388400    505.97896   -114.26831      2204118          147  0.007193656   -150928.35   -149730.82 
  388500    479.47625   -69.041424      2204118          147  0.007193656   -150811.91    -149677.1 
  388600    509.51329   -25.330713      2204118          147  0.007193656   -150833.96   -149628.07 
  388700    468.42321     33.06357      2204118          147  0.007193656   -150744.94   -149636.29 
  388800    483.44327    158.01926      2204118          147  0.007193656   -150811.84   -149667.65 
  388900    483.74663   -13.718711      2204118          147  0.007193656    -150902.5   -149757.58 
  389000     478.4126   -9.5512936      2204118          147  0.007193656   -150904.57   -149772.28 
  389100    473.04841    120.73993      2204118          147  0.007193656   -150842.74   -149723.15 
  389200    491.92221     152.3859      2204118          147  0.007193656   -150846.99   -149682.73 
  389300    497.31911    20.621711      2204118          147  0.007193656   -150808.44    -149631.4 
  389400     516.6706   -30.317996      2204118          147  0.007193656   -150818.79   -149595.95 
  389500    523.16128    80.948587      2204118          147  0.007193656   -150858.62   -149620.42 
  389600     493.3268     28.02508      2204118          147  0.007193656   -150894.46   -149726.87 
  389700    475.61556    85.468907      2204118          147  0.007193656   -150839.33   -149713.66 
  389800    489.06133   -232.86883      2204118          147  0.007193656   -150832.72   -149675.23 
  389900      505.734    154.18905      2204118          147  0.007193656   -150816.75    -149619.8 
  390000    497.28446    19.018391      2204118          147  0.007193656   -150787.22   -149610.26 
  390100    505.67146    47.251755      2204118          147  0.007193656   -150884.97   -149688.16 
  390200    487.34043   -66.927916      2204118          147  0.007193656   -150895.66   -149742.24 
  390300    485.86304   -1.3834937      2204118          147  0.007193656   -150850.27   -149700.35 
  390400    509.80442   -11.877508      2204118          147  0.007193656   -150857.18   -149650.59 
  390500     508.9985   -25.203982      2204118          147  0.007193656   -150835.02   -149630.34 
  390600    512.94657   -71.204771      2204118          147  0.007193656   -150833.38   -149619.35 
  390700    453.35497    71.220986      2204118          147  0.007193656    -150727.1   -149654.11 
  390800    492.39111   -40.152482      2204118          147  0.007193656   -150880.07    -149714.7 
  390900    494.84267   -166.56682      2204118          147  0.007193656   -150878.22   -149707.05 
  391000     486.0543    90.876713      2204118          147  0.007193656    -150787.2   -149636.83 
  391100    486.83826   -22.098161      2204118          147  0.007193656    -150758.4   -149606.17 
  391200    524.80902    66.845419      2204118          147  0.007193656   -150857.55   -149615.45 
  391300    509.24574    -108.6941      2204118          147  0.007193656   -150861.17    -149655.9 
  391400    507.91042    93.119209      2204118          147  0.007193656   -150871.46   -149669.35 
  391500    504.29068   -70.062689      2204118          147  0.007193656    -150866.6   -149673.07 
  391600    507.71453    67.826622      2204118          147  0.007193656   -150877.29   -149675.65 
  391700    509.36445   -159.97694      2204118          147  0.007193656    -150846.6   -149641.05 
  391800    518.38127      21.9482      2204118          147  0.007193656   -150756.76   -149529.88 
  391900    530.46987    121.38998      2204118          147  0.007193656   -150800.37   -149544.87 
  392000    518.47332    11.870407      2204118          147  0.007193656    -150835.2   -149608.09 
  392100    477.89362   -71.190637      2204118          147  0.007193656   -150769.22   -149638.16 
  392200    508.20235   -29.898434      2204118          147  0.007193656   -150853.27   -149650.48 
  392300    513.97651    188.39616      2204118          147  0.007193656   -150884.74   -149668.28 
  392400    493.18778   -92.625933      2204118          147  0.007193656   -150882.37   -149715.11 
  392500     495.2866    23.917448      2204118          147  0.007193656   -150898.99   -149726.76 
  392600    495.23516   -83.566318      2204118          147  0.007193656   -150825.75   -149653.64 
  392700    523.92734    6.0541559      2204118          147  0.007193656   -150847.66   -149607.65 
  392800    522.57087   -4.1093738      2204118          147  0.007193656   -150849.27   -149612.47 
  392900    501.19356   -251.39514      2204118          147  0.007193656   -150839.49   -149653.28 
  393000    469.00828    13.616395      2204118          147  0.007193656   -150826.92   -149716.89 
  393100    485.44166    92.742118      2204118          147  0.007193656   -150920.33   -149771.41 
  393200    476.64983    -65.20592      2204118          147  0.007193656   -150868.26   -149740.14 
  393300    496.28566    -146.6109      2204118          147  0.007193656   -150827.54   -149652.95 
  393400    521.81725   -63.124795      2204118          147  0.007193656    -150857.7   -149622.68 
  393500    534.20315    149.08868      2204118          147  0.007193656   -150892.98   -149628.65 
  393600    467.84396   -20.176074      2204118          147  0.007193656   -150801.29   -149694.02 
  393700     468.2831   -108.18739      2204118          147  0.007193656   -150834.01    -149725.7 
  393800    508.46472   -140.51078      2204118          147  0.007193656   -150875.08   -149671.67 
  393900    517.14877    163.61063      2204118          147  0.007193656   -150854.28   -149630.31 
  394000    502.33175     18.10383      2204118          147  0.007193656   -150821.47   -149632.57 
  394100    508.45929    19.398309      2204118          147  0.007193656   -150846.06   -149642.66 
  394200    493.97413    37.775346      2204118          147  0.007193656   -150801.19   -149632.07 
  394300     502.0704    80.060688      2204118          147  0.007193656   -150802.09   -149613.81 
  394400    482.85088    28.818255      2204118          147  0.007193656   -150799.28   -149656.49 
  394500     488.3263    66.165939      2204118          147  0.007193656    -150865.5   -149709.75 
  394600    496.94851     155.3717      2204118          147  0.007193656   -150900.64   -149724.48 
  394700    511.51073    15.061281      2204118          147  0.007193656   -150872.54   -149661.92 
  394800    509.53835    27.766681      2204118          147  0.007193656   -150794.08   -149588.12 
  394900    512.74968   -32.733624      2204118          147  0.007193656   -150824.71   -149611.16 
  395000    524.33161   -1.4514679      2204118          147  0.007193656   -150907.17    -149666.2 
  395100    477.63105    266.58162      2204118          147  0.007193656   -150833.72   -149703.28 
  395200    495.82905   -67.897011      2204118          147  0.007193656   -150867.16   -149693.65 
  395300    500.59991   -297.13033      2204118          147  0.007193656   -150785.18   -149600.38 
  395400    527.21569    142.31336      2204118          147  0.007193656   -150799.87   -149552.07 
  395500    500.41855   -166.09224      2204118          147  0.007193656   -150793.52   -149609.15 
  395600    501.84738   -73.862088      2204118          147  0.007193656    -150861.8   -149674.05 
  395700    501.51086   -109.65893      2204118          147  0.007193656   -150878.03   -149691.07 
  395800    502.18873    28.830379      2204118          147  0.007193656   -150853.61   -149665.05 
  395900    485.05403    9.6244797      2204118          147  0.007193656   -150743.48   -149595.48 
  396000    536.44015   -157.25932      2204118          147  0.007193656   -150824.45   -149554.83 
  396100    523.36435    7.5137399      2204118          147  0.007193656   -150853.91   -149615.23 
  396200    485.24377    59.892688      2204118          147  0.007193656   -150840.84   -149692.38 
  396300    484.24501      89.5223      2204118          147  0.007193656   -150825.64   -149679.55 
  396400    496.83698   -183.00827      2204118          147  0.007193656   -150820.29    -149644.4 
  396500    524.55071   -21.397175      2204118          147  0.007193656   -150859.04   -149617.55 
  396600    513.89503    21.906129      2204118          147  0.007193656   -150857.85   -149641.58 
  396700    491.14477    64.061138      2204118          147  0.007193656   -150890.08   -149727.65 
  396800    489.00478    24.376521      2204118          147  0.007193656    -150881.1   -149723.74 
  396900       507.33    133.41012      2204118          147  0.007193656    -150878.3   -149677.57 
  397000    495.92211    52.294311      2204118          147  0.007193656   -150806.47   -149632.74 
  397100    517.73033   -26.412083      2204118          147  0.007193656   -150861.25    -149635.9 
  397200    494.30006    30.553673      2204118          147  0.007193656   -150820.54   -149650.65 
  397300    487.38425   -11.032691      2204118          147  0.007193656   -150823.89   -149670.36 
  397400    493.59105    38.217731      2204118          147  0.007193656    -150858.7   -149690.49 
  397500    504.60105    35.254789      2204118          147  0.007193656    -150937.3   -149743.03 
  397600    502.01972    -26.11056      2204118          147  0.007193656   -150974.33   -149786.17 
  397700    490.76176    13.958361      2204118          147  0.007193656   -150901.35   -149739.83 
  397800    501.68108    180.85094      2204118          147  0.007193656   -150855.16    -149667.8 
  397900    491.40135    33.796253      2204118          147  0.007193656    -150812.1   -149649.07 
  398000    474.56788   -112.31817      2204118          147  0.007193656   -150775.97   -149652.78 
  398100    511.79835    21.246067      2204118          147  0.007193656   -150871.69   -149660.39 
  398200    485.90566    106.81447      2204118          147  0.007193656   -150840.38   -149690.36 
  398300    506.94425    17.583404      2204118          147  0.007193656   -150924.72    -149724.9 
  398400    494.45259   -78.877112      2204118          147  0.007193656   -150911.04   -149740.78 
  398500    479.85303    113.66801      2204118          147  0.007193656   -150804.59   -149668.89 
  398600    500.55657    33.266542      2204118          147  0.007193656   -150795.93   -149611.23 
  398700    493.03871   -78.551333      2204118          147  0.007193656   -150792.09   -149625.19 
  398800    500.31958   -134.10994      2204118          147  0.007193656   -150857.62   -149673.48 
  398900    502.52507    20.108371      2204118          147  0.007193656   -150896.36      -149707 
  399000    499.78497    159.26853      2204118          147  0.007193656   -150838.02   -149655.14 
  399100    526.17111    23.093465      2204118          147  0.007193656   -150805.15   -149559.82 
  399200    528.81269   -52.494563      2204118          147  0.007193656   -150838.57   -149586.99 
  399300    503.59735    88.278394      2204118          147  0.007193656   -150854.44   -149662.54 
  399400    491.09011   -41.070083      2204118          147  0.007193656   -150866.05   -149703.75 
  399500    478.39314    39.063009      2204118          147  0.007193656   -150835.29   -149703.05 
  399600    495.39419    -26.27962      2204118          147  0.007193656   -150804.92   -149632.44 
  399700    512.17835   -54.332658      2204118          147  0.007193656   -150808.06   -149595.85 
  399800    509.09581    142.63032      2204118          147  0.007193656   -150821.19   -149616.28 
  399900    495.66282    -101.4058      2204118          147  0.007193656   -150837.52   -149664.41 
  400000    469.36806   -72.670345      2204118          147  0.007193656   -150816.24   -149705.35 
  400057    491.02999   -122.34425      2204118          147  0.007193656   -150859.85    -149697.7 
Loop time of 4588.43 on 16 procs for 400000 steps with 795 atoms

Performance: 1.883 ns/day, 12.746 hours/ns, 87.176 timesteps/s
100.0% CPU use with 16 MPI tasks x no OpenMP threads

MPI task timing breakdown:
Section |  min time  |  avg time  |  max time  |%varavg| %total
---------------------------------------------------------------
Pair    | 0.1668     | 1132.1     | 3757.3     |4109.2 | 24.67
Neigh   | 0.014036   | 1.8461     | 3.78       | 134.8 |  0.04
Comm    | 0.29418    | 655.7      | 2593.2     |3662.2 | 14.29
Output  | 0.33338    | 0.34092    | 0.39834    |   2.6 |  0.01
Modify  | 813.61     | 2797.9     | 4587.3     |3402.2 | 60.98
Other   |            | 0.5505     |            |       |  0.01

Nlocal:        49.6875 ave         210 max           0 min
Histogram: 12 0 0 0 0 0 0 0 0 4
Nghost:        159.062 ave         426 max           0 min
Histogram: 8 0 0 0 0 4 0 0 0 4
Neighs:        3061.31 ave       12931 max           0 min
Histogram: 12 0 0 0 0 0 0 0 0 4

Total # of neighbors = 48981
Ave neighs/atom = 61.611321
Neighbor list builds = 7423
Dangerous builds = 0

write_data graphene_single_layer_ReaxFF_795_C_temp_500K.data
System init for write_data ...
Total wall time: 1:16:31
