
# System definition
read_data graphene_single_layer_x-45_y-45_795_C.data
Reading data file ...
  orthogonal box = (-51.000000 -51.000000 -51.000000) to (96.000000 96.000000 51.000000)
  2 by 4 by 2 MPI processor grid
  reading atoms ...
  795 atoms
  read_data CPU = 0.016 seconds

pair_style reax/c NULL
pair_coeff * * ffield.reax.cho C
Reading potential file ffield.reax.cho with DATE: 2011-02-18
fix qeq_reax all qeq/reax 1 0.0 10.0 1.0e-6 reax/c


# Minimization
timestep 0.25
min_style cg
thermo 100
thermo_style custom step temp press vol lx density pe etotal
dump 2 all custom 1000 graphene_single_layer_ReaxFF_795_C_temp_600K.lammpstrj id type x y z
minimize 1.0e-6 1.0e-6 100 1000

CITE-CITE-CITE-CITE-CITE-CITE-CITE-CITE-CITE-CITE-CITE-CITE-CITE

Your simulation uses code contributions which should be cited:

- pair reaxff command:

@Article{Aktulga12,
 author = {H. M. Aktulga, J. C. Fogarty, S. A. Pandit, A. Y. Grama},
 title = {Parallel reactive molecular dynamics: Numerical methods and algorithmic techniques},
 journal = {Parallel Computing},
 year =    2012,
 volume =  38,
 pages =   {245--259}
}

- fix qeq/reaxff command:

@Article{Aktulga12,
 author = {H. M. Aktulga, J. C. Fogarty, S. A. Pandit, A. Y. Grama},
 title = {Parallel reactive molecular dynamics: Numerical methods and algorithmic techniques},
 journal = {Parallel Computing},
 year =    2012,
 volume =  38,
 pages =   {245--259}
}

CITE-CITE-CITE-CITE-CITE-CITE-CITE-CITE-CITE-CITE-CITE-CITE-CITE

WARNING: Using 'neigh_modify every 1 delay 0 check yes' setting during minimization (../min.cpp:188)
Neighbor list info ...
  update every 1 steps, delay 0 steps, check yes
  max neighbors/atom: 10000, page size: 100000
  master list distance cutoff = 10.4
  ghost atom cutoff = 10.4
  binsize = 5.2, bins = 29 29 20
  2 neighbor lists, perpetual/occasional/extra = 2 0 0
  (1) pair reax/c, perpetual
      attributes: half, newton off, ghost
      pair build: half/bin/newtoff/ghost
      stencil: full/ghost/bin/3d
      bin: standard
  (2) fix qeq/reax, perpetual, copy from (1)
      attributes: half, newton off, ghost
      pair build: copy
      stencil: none
      bin: none
Per MPI rank memory allocation (min/avg/max) = 7.965 | 10.90 | 14.56 Mbytes
Step Temp Press Volume Lx Density PotEng TotEng 
       0            0    4589.6155      2204118          147  0.007193656   -142445.78   -142445.78 
      57            0    1294.9092      2204118          147  0.007193656   -150031.46   -150031.46 
Loop time of 3.35702 on 16 procs for 57 steps with 795 atoms

100.0% CPU use with 16 MPI tasks x no OpenMP threads

Minimization stats:
  Stopping criterion = energy tolerance
  Energy initial, next-to-last, final = 
     -142445.777810412  -150031.434465826  -150031.460524184
  Force two-norm initial, final = 2416.1570 1787.6736
  Force max component initial, final = 272.51119 337.29483
  Final line search alpha, max atom move = 0.00017977701 0.060637855
  Iterations, force evaluations = 57 237

MPI task timing breakdown:
Section |  min time  |  avg time  |  max time  |%varavg| %total
---------------------------------------------------------------
Pair    | 0.00012883 | 0.70161    | 2.3324     | 102.4 | 20.90
Neigh   | 2.6052e-05 | 0.0015394  | 0.0032663  |   3.9 |  0.05
Comm    | 0.00024343 | 0.40794    | 1.6109     |  91.4 | 12.15
Output  | 0          | 0          | 0          |   0.0 |  0.00
Modify  | 1.0073     | 1.0099     | 1.0123     |   0.2 | 30.08
Other   |            | 1.236      |            |       | 36.82

Nlocal:        49.6875 ave         209 max           0 min
Histogram: 12 0 0 0 0 0 0 0 0 4
Nghost:        162.812 ave         432 max           0 min
Histogram: 8 0 0 0 0 4 0 0 0 4
Neighs:        3113.44 ave       13116 max           0 min
Histogram: 12 0 0 0 0 0 0 0 0 4

Total # of neighbors = 49815
Ave neighs/atom = 62.660377
Neighbor list builds = 6
Dangerous builds = 0

fix 1 all nvt temp 600.0 600.0 $(100.0*dt)
fix 1 all nvt temp 600.0 600.0 25
run 400000
Per MPI rank memory allocation (min/avg/max) = 6.841 | 9.777 | 13.44 Mbytes
Step Temp Press Volume Lx Density PotEng TotEng 
      57            0    1294.9092      2204118          147  0.007193656   -150031.46   -150031.46 
     100    121.32304    1524.4866      2204118          147  0.007193656   -150304.18   -150017.04 
     200    282.07449   -715.19034      2204118          147  0.007193656   -150491.05   -149823.45 
     300    316.27833   -831.42161      2204118          147  0.007193656   -150350.48   -149601.92 
     400    410.88896   -844.59321      2204118          147  0.007193656   -150257.45   -149284.97 
     500    582.92634    658.62558      2204118          147  0.007193656   -150329.16   -148949.51 
     600    485.55762    980.67885      2204118          147  0.007193656   -149795.63   -148646.43 
     700    661.80598   -543.37382      2204118          147  0.007193656   -149979.23   -148412.89 
     800    519.20831    -701.0773      2204118          147  0.007193656   -149654.08   -148425.24 
     900    694.27543   -493.01015      2204118          147  0.007193656   -149877.29    -148234.1 
    1000    781.46427    82.152226      2204118          147  0.007193656   -150273.66   -148424.12 
    1100    518.25233    1471.2895      2204118          147  0.007193656   -150056.67   -148830.09 
    1200    564.01552   -131.66391      2204118          147  0.007193656   -150227.08   -148892.19 
    1300     515.9967   -508.76632      2204118          147  0.007193656   -150027.66   -148806.42 
    1400    641.66285   -315.00513      2204118          147  0.007193656   -150072.73   -148554.06 
    1500    698.31548    47.779491      2204118          147  0.007193656   -150274.76   -148622.01 
    1600    559.83197    1025.3015      2204118          147  0.007193656   -150254.42   -148929.43 
    1700    585.04523   -316.56475      2204118          147  0.007193656   -150448.39   -149063.73 
    1800     495.7005   -606.42118      2204118          147  0.007193656   -150225.67   -149052.46 
    1900    576.15966   -522.74719      2204118          147  0.007193656   -150167.71   -148804.08 
    2000    616.65633    -174.3282      2204118          147  0.007193656   -150054.28    -148594.8 
    2100    698.02521    738.02643      2204118          147  0.007193656   -150273.79   -148621.73 
    2200    609.36723    4.3801537      2204118          147  0.007193656   -150374.31   -148932.08 
    2300    527.72552   -172.86889      2204118          147  0.007193656    -150344.5    -149095.5 
    2400    559.95664   -76.002321      2204118          147  0.007193656   -150295.17   -148969.88 
    2500    615.04376    637.92821      2204118          147  0.007193656   -150235.24   -148779.58 
    2600    684.69862    161.68948      2204118          147  0.007193656   -150366.08   -148745.56 
    2700    589.88207   -292.64747      2204118          147  0.007193656   -150330.97   -148934.86 
    2800    552.54732   -300.28654      2204118          147  0.007193656   -150309.29   -149001.54 
    2900    605.95909    -210.8052      2204118          147  0.007193656   -150321.39   -148887.23 
    3000    600.13826    293.05958      2204118          147  0.007193656   -150197.21   -148776.83 
    3100    626.13915    81.221289      2204118          147  0.007193656    -150224.1   -148742.17 
    3200    616.17905    -80.17509      2204118          147  0.007193656   -150310.42   -148852.07 
    3300    603.52721   -108.16687      2204118          147  0.007193656   -150453.38   -149024.97 
    3400    577.62381    260.35054      2204118          147  0.007193656   -150531.91   -149164.81 
    3500    530.40059     244.5647      2204118          147  0.007193656   -150390.08   -149134.75 
    3600    597.78543   -106.44446      2204118          147  0.007193656    -150353.2   -148938.39 
    3700    615.37941   -169.30363      2204118          147  0.007193656   -150245.67   -148789.22 
    3800    632.85095    206.75463      2204118          147  0.007193656   -150283.71    -148785.9 
    3900     589.4883    329.21786      2204118          147  0.007193656   -150349.17   -148953.99 
    4000     579.1835    63.824634      2204118          147  0.007193656   -150428.61   -149057.81 
    4100    576.74784   -210.66128      2204118          147  0.007193656   -150419.93   -149054.91 
    4200    588.97602   -1.3417048      2204118          147  0.007193656   -150321.19   -148927.23 
    4300    622.18833   -114.85073      2204118          147  0.007193656   -150282.11   -148809.54 
    4400    616.23749    181.78961      2204118          147  0.007193656   -150274.52   -148816.03 
    4500    601.52798    16.624706      2204118          147  0.007193656   -150400.08   -148976.41 
    4600    561.82044     219.5745      2204118          147  0.007193656   -150392.38   -149062.68 
    4700    565.81063    117.13459      2204118          147  0.007193656   -150353.66   -149014.52 
    4800    643.44005     245.7806      2204118          147  0.007193656      -150414   -148891.13 
    4900    621.85599   -89.670478      2204118          147  0.007193656    -150345.7   -148873.92 
    5000    620.25646   -321.39572      2204118          147  0.007193656   -150445.39   -148977.39 
    5100    580.56615   -173.30744      2204118          147  0.007193656   -150410.54   -149036.47 
    5200    600.55687    40.375895      2204118          147  0.007193656   -150431.96   -149010.58 
    5300    639.98281   -118.69916      2204118          147  0.007193656    -150429.1   -148914.41 
    5400    585.66833    58.496333      2204118          147  0.007193656   -150259.28   -148873.14 
    5500    574.35687   -66.566969      2204118          147  0.007193656   -150222.08   -148862.71 
    5600    620.16404    46.677818      2204118          147  0.007193656    -150383.3   -148915.52 
    5700    612.43752    126.75464      2204118          147  0.007193656   -150485.51   -149036.02 
    5800    559.92576   -46.956124      2204118          147  0.007193656   -150354.11    -149028.9 
    5900    613.88384   -3.2315603      2204118          147  0.007193656   -150371.38   -148918.47 
    6000    616.16632   -10.208891      2204118          147  0.007193656   -150335.23   -148876.91 
    6100    597.70869    175.32903      2204118          147  0.007193656   -150347.82   -148933.18 
    6200    559.48306    36.428255      2204118          147  0.007193656   -150338.17      -149014 
    6300    598.15366    72.305458      2204118          147  0.007193656    -150419.2   -149003.51 
    6400     605.5208   -60.822541      2204118          147  0.007193656   -150370.35   -148937.23 
    6500     589.7197   -90.739477      2204118          147  0.007193656   -150273.79   -148878.07 
    6600    616.01761    -145.0637      2204118          147  0.007193656   -150324.41   -148866.44 
    6700    627.04312    73.970166      2204118          147  0.007193656   -150378.76   -148894.69 
    6800    601.57589    31.960825      2204118          147  0.007193656   -150373.54   -148949.75 
    6900     599.5105    100.86968      2204118          147  0.007193656   -150413.94   -148995.04 
    7000    603.40078    138.96854      2204118          147  0.007193656   -150401.71    -148973.6 
    7100    630.49564    189.35125      2204118          147  0.007193656   -150385.36   -148893.13 
    7200    599.57895   -70.535604      2204118          147  0.007193656   -150298.68   -148879.62 
    7300    616.81358   -145.81207      2204118          147  0.007193656   -150377.03   -148917.17 
    7400    638.47834   -116.00335      2204118          147  0.007193656   -150453.59   -148942.47 
    7500    595.51006    127.15697      2204118          147  0.007193656   -150375.26   -148965.83 
    7600    578.35305   -131.93384      2204118          147  0.007193656   -150393.69   -149024.86 
    7700    569.13059    152.29047      2204118          147  0.007193656   -150393.33   -149046.33 
    7800    602.86147    -69.48521      2204118          147  0.007193656   -150377.49   -148950.66 
    7900    608.38017    14.641713      2204118          147  0.007193656   -150353.45   -148913.56 
    8000    599.77453   -56.544192      2204118          147  0.007193656   -150372.11   -148952.59 
    8100    592.59776   -109.24216      2204118          147  0.007193656   -150393.05   -148990.51 
    8200    590.47199    44.932115      2204118          147  0.007193656   -150329.25   -148931.74 
    8300    633.65712    282.10352      2204118          147  0.007193656   -150339.08   -148839.37 
    8400    602.37083     147.8272      2204118          147  0.007193656   -150339.73   -148914.06 
    8500    582.11043   -121.66392      2204118          147  0.007193656    -150372.6   -148994.88 
    8600    597.85506   -74.420615      2204118          147  0.007193656   -150420.59   -149005.61 
    8700    586.83109    72.880098      2204118          147  0.007193656   -150368.13   -148979.24 
    8800    593.25436    33.168275      2204118          147  0.007193656   -150281.81   -148877.71 
    8900    621.54754   -202.71167      2204118          147  0.007193656   -150315.99   -148844.93 
    9000    635.38964   -164.81583      2204118          147  0.007193656   -150370.64   -148866.82 
    9100    629.12432    35.144384      2204118          147  0.007193656   -150435.11   -148946.12 
    9200    594.25606    174.88862      2204118          147  0.007193656    -150410.5   -149004.04 
    9300    561.48876   -11.050864      2204118          147  0.007193656   -150354.83   -149025.92 
    9400    614.15725   -8.3923025      2204118          147  0.007193656   -150443.54   -148989.97 
    9500    642.68253   -121.86417      2204118          147  0.007193656   -150433.51   -148912.44 
    9600    626.27996    34.718459      2204118          147  0.007193656   -150372.53   -148890.27 
    9700     599.3416   -143.86883      2204118          147  0.007193656   -150428.22   -149009.72 
    9800    586.23458    115.55727      2204118          147  0.007193656   -150446.15   -149058.67 
    9900    562.50513    6.7000617      2204118          147  0.007193656   -150373.43   -149042.12 
   10000    594.08601    27.403323      2204118          147  0.007193656   -150355.37   -148949.31 
   10100    630.34246    43.693299      2204118          147  0.007193656   -150399.82   -148907.95 
   10200    637.53978   -3.4210422      2204118          147  0.007193656    -150453.2   -148944.29 
   10300     603.9133    -87.14466      2204118          147  0.007193656   -150433.99   -149004.67 
   10400    584.64168     143.2688      2204118          147  0.007193656   -150417.79   -149034.08 
   10500    611.75738   -54.257959      2204118          147  0.007193656   -150466.16   -149018.27 
   10600    615.97428   -52.267055      2204118          147  0.007193656    -150413.5   -148955.64 
   10700     623.4381    -178.0062      2204118          147  0.007193656   -150336.02   -148860.49 
   10800    626.47682    179.21649      2204118          147  0.007193656   -150362.04   -148879.31 
   10900    622.47682    52.081426      2204118          147  0.007193656    -150416.8   -148943.54 
   11000    602.88104   -53.168384      2204118          147  0.007193656   -150446.29   -149019.42 
   11100    575.80055   -170.02512      2204118          147  0.007193656   -150388.83   -149026.04 
   11200    626.97214    24.672173      2204118          147  0.007193656   -150441.54   -148957.65 
   11300    608.06662    48.850292      2204118          147  0.007193656   -150353.46   -148914.31 
   11400     586.4192     94.60803      2204118          147  0.007193656   -150337.64   -148949.72 
   11500    601.11665   -16.540516      2204118          147  0.007193656   -150410.83   -148988.12 
   11600     611.1028    221.78137      2204118          147  0.007193656   -150467.82   -149021.49 
   11700    575.37052    110.16482      2204118          147  0.007193656   -150399.39   -149037.62 
   11800    605.05806    142.05459      2204118          147  0.007193656   -150378.32   -148946.29 
   11900     604.9162   -146.11689      2204118          147  0.007193656   -150298.87   -148867.18 
   12000    656.67691    95.808284      2204118          147  0.007193656   -150473.43   -148919.23 
   12100    598.74146    108.86068      2204118          147  0.007193656   -150429.69   -149012.61 
   12200    592.92484   -105.41223      2204118          147  0.007193656   -150452.03   -149048.72 
   12300    590.88842   -171.77941      2204118          147  0.007193656   -150440.02   -149041.53 
   12400    600.08648    53.856118      2204118          147  0.007193656   -150373.85   -148953.59 
   12500    625.61086    207.81002      2204118          147  0.007193656   -150407.83   -148927.16 
   12600    596.77007   -75.886198      2204118          147  0.007193656   -150383.11   -148970.69 
   12700    593.10453   -132.70029      2204118          147  0.007193656   -150404.03   -149000.29 
   12800    618.73465    -38.16222      2204118          147  0.007193656   -150472.42   -149008.02 
   12900    583.95768    124.30677      2204118          147  0.007193656   -150400.56   -149018.47 
   13000    589.83126   -4.7900754      2204118          147  0.007193656   -150434.19    -149038.2 
   13100    602.55254   -43.793412      2204118          147  0.007193656   -150489.67   -149063.58 
   13200    588.65394   -53.679963      2204118          147  0.007193656   -150475.08   -149081.87 
   13300     597.7106    12.117405      2204118          147  0.007193656   -150441.61   -149026.98 
   13400    609.73115   -42.599908      2204118          147  0.007193656   -150389.87   -148946.78 
   13500    595.72746   -20.844405      2204118          147  0.007193656    -150332.8   -148922.85 
   13600    615.16023   -163.69287      2204118          147  0.007193656   -150401.22   -148945.28 
   13700    628.62498   -178.88315      2204118          147  0.007193656   -150520.49   -149032.68 
   13800    561.76575    173.97565      2204118          147  0.007193656    -150435.7   -149106.13 
   13900    577.24777    17.656097      2204118          147  0.007193656   -150439.83   -149073.62 
   14000     572.1967   -43.827502      2204118          147  0.007193656    -150346.2   -148991.94 
   14100    581.77377   -8.0200532      2204118          147  0.007193656   -150317.92      -148941 
   14200    585.79184    227.61835      2204118          147  0.007193656   -150325.84   -148939.41 
   14300    616.32348     62.41263      2204118          147  0.007193656    -150462.1    -149003.4 
   14400    598.01919    9.9923697      2204118          147  0.007193656   -150500.41   -149085.04 
   14500    563.97689   -206.21173      2204118          147  0.007193656   -150400.22   -149065.42 
   14600     611.8379    47.705803      2204118          147  0.007193656   -150443.67    -148995.6 
   14700    631.65418    16.034999      2204118          147  0.007193656   -150457.62   -148962.64 
   14800    637.18334    105.37112      2204118          147  0.007193656    -150518.7   -149010.64 
   14900    643.53904   -31.061779      2204118          147  0.007193656   -150633.84   -149110.74 
   15000    580.65076    50.022827      2204118          147  0.007193656   -150479.48   -149105.21 
   15100    552.85318    176.00435      2204118          147  0.007193656   -150357.63   -149049.16 
   15200    625.96815    123.67038      2204118          147  0.007193656   -150462.28   -148980.76 
   15300    615.42645    102.01534      2204118          147  0.007193656   -150418.48   -148961.91 
   15400    624.47173   -71.831334      2204118          147  0.007193656   -150449.68    -148971.7 
   15500    619.96263    50.599131      2204118          147  0.007193656   -150476.08   -149008.78 
   15600    599.92786    116.22957      2204118          147  0.007193656   -150454.73   -149034.84 
   15700    600.16924   -63.883698      2204118          147  0.007193656   -150474.26    -149053.8 
   15800    579.70275   -87.724449      2204118          147  0.007193656   -150459.67   -149087.65 
   15900    571.79866    -15.10787      2204118          147  0.007193656   -150459.81    -149106.5 
   16000    600.96748   -3.2610411      2204118          147  0.007193656   -150489.49   -149067.14 
   16100     576.3321   -41.028149      2204118          147  0.007193656   -150338.84    -148974.8 
   16200    618.48781   -29.938508      2204118          147  0.007193656   -150428.72   -148964.91 
   16300     592.4318    218.96364      2204118          147  0.007193656    -150412.3   -149010.16 
   16400    589.12198    93.580281      2204118          147  0.007193656   -150497.15   -149102.83 
   16500    586.25495    10.486465      2204118          147  0.007193656   -150503.66   -149116.14 
   16600    566.03472    46.547037      2204118          147  0.007193656   -150420.71   -149081.04 
   16700    624.93762     104.4959      2204118          147  0.007193656   -150509.51   -149030.43 
   16800     604.8811    128.09034      2204118          147  0.007193656   -150427.68   -148996.07 
   16900     601.6028    32.667019      2204118          147  0.007193656   -150497.39   -149073.54 
   17000    586.32379   -76.299885      2204118          147  0.007193656   -150530.96   -149143.27 
   17100    586.76258    65.644196      2204118          147  0.007193656   -150513.08   -149124.35 
   17200    588.88243    -71.21555      2204118          147  0.007193656   -150452.54   -149058.79 
   17300    635.23218    74.417141      2204118          147  0.007193656   -150531.45      -149028 
   17400    604.52008    -45.65392      2204118          147  0.007193656   -150548.29   -149117.53 
   17500    570.86834   -79.449861      2204118          147  0.007193656   -150558.83   -149207.72 
   17600    600.55185   -55.702269      2204118          147  0.007193656   -150579.75   -149158.39 
   17700    603.51561    190.92184      2204118          147  0.007193656   -150514.55   -149086.17 
   17800    570.29005   -93.129355      2204118          147  0.007193656   -150421.22   -149071.48 
   17900    626.39796     -60.8626      2204118          147  0.007193656   -150524.18   -149041.65 
   18000    610.59636    58.157867      2204118          147  0.007193656   -150505.84    -149060.7 
   18100    584.91874   -53.992881      2204118          147  0.007193656   -150529.22   -149144.86 
   18200    586.47478   -40.795435      2204118          147  0.007193656   -150555.48   -149167.44 
   18300    568.30841   -80.377835      2204118          147  0.007193656   -150450.19   -149105.14 
   18400    609.05103   -151.69796      2204118          147  0.007193656   -150465.62   -149024.14 
   18500    599.01116    9.9683192      2204118          147  0.007193656    -150452.2   -149034.48 
   18600    604.87559    56.815849      2204118          147  0.007193656   -150510.56   -149078.96 
   18700    599.02203    34.129174      2204118          147  0.007193656   -150543.63   -149125.89 
   18800    585.50983   -78.417277      2204118          147  0.007193656    -150520.1   -149134.33 
   18900    614.83591    185.65341      2204118          147  0.007193656   -150554.81   -149099.64 
   19000    627.36296    43.014276      2204118          147  0.007193656   -150477.24   -148992.42 
   19100    604.64372    -39.17146      2204118          147  0.007193656   -150393.85    -148962.8 
   19200    604.77147    -81.65542      2204118          147  0.007193656   -150473.14   -149041.79 
   19300    598.08044   -5.6600402      2204118          147  0.007193656   -150510.54   -149095.02 
   19400    600.58857    126.27398      2204118          147  0.007193656   -150528.22   -149106.77 
   19500    591.79922   -46.697382      2204118          147  0.007193656   -150497.08   -149096.43 
   19600    604.07639   -6.5062044      2204118          147  0.007193656   -150524.15   -149094.44 
   19700    596.40235    25.916534      2204118          147  0.007193656   -150529.29   -149117.75 
   19800    597.70646    125.91867      2204118          147  0.007193656   -150544.43    -149129.8 
   19900    613.21043    113.36787      2204118          147  0.007193656   -150561.27   -149109.95 
   20000    614.05807   -41.205444      2204118          147  0.007193656   -150495.97   -149042.64 
   20100    621.05371    -45.28599      2204118          147  0.007193656   -150491.86   -149021.97 
   20200    601.17792     138.8227      2204118          147  0.007193656   -150535.43   -149112.58 
   20300    594.76891    144.62896      2204118          147  0.007193656   -150586.26   -149178.59 
   20400    611.80506   -148.07047      2204118          147  0.007193656   -150599.11   -149151.12 
   20500    611.02346   -116.40148      2204118          147  0.007193656   -150526.31   -149080.16 
   20600    620.64246   -42.017201      2204118          147  0.007193656   -150513.37   -149044.46 
   20700    605.01945   -17.725955      2204118          147  0.007193656   -150492.51   -149060.58 
   20800    589.30369   -144.37512      2204118          147  0.007193656   -150497.21   -149102.47 
   20900    603.79458   -115.59001      2204118          147  0.007193656   -150555.14    -149126.1 
   21000    603.39298    95.898343      2204118          147  0.007193656   -150543.06   -149114.97 
   21100    606.53116    201.85938      2204118          147  0.007193656    -150535.6   -149100.09 
   21200    603.25658    39.569256      2204118          147  0.007193656   -150509.64   -149081.88 
   21300    590.69997   -79.837093      2204118          147  0.007193656   -150459.32   -149061.27 
   21400    614.09446   -120.97083      2204118          147  0.007193656   -150440.72    -148987.3 
   21500     633.8998    -3.617727      2204118          147  0.007193656   -150444.29   -148943.99 
   21600    637.35461    30.676259      2204118          147  0.007193656   -150530.81   -149022.34 
   21700    594.55234   -16.624906      2204118          147  0.007193656   -150499.22   -149092.05 
   21800    580.71505   -156.01461      2204118          147  0.007193656   -150472.06   -149097.64 
   21900    603.56269    79.552986      2204118          147  0.007193656   -150496.34   -149067.85 
   22000    623.79825    227.04785      2204118          147  0.007193656   -150539.29   -149062.91 
   22100    554.66535    16.659899      2204118          147  0.007193656   -150455.81   -149143.04 
   22200    573.29488   -142.34077      2204118          147  0.007193656   -150542.64   -149185.79 
   22300    595.95078    86.255996      2204118          147  0.007193656   -150523.75   -149113.28 
   22400    571.72157    42.447811      2204118          147  0.007193656   -150413.19   -149060.06 
   22500    581.21018    81.051202      2204118          147  0.007193656   -150444.52   -149068.93 
   22600    594.45498   -309.92486      2204118          147  0.007193656   -150520.84   -149113.91 
   22700    585.35461   -91.630751      2204118          147  0.007193656   -150482.97   -149097.57 
   22800    644.39246   -47.144935      2204118          147  0.007193656   -150564.14   -149039.02 
   22900    629.78332    51.611317      2204118          147  0.007193656   -150397.69   -148907.14 
   23000    614.89984   -100.75559      2204118          147  0.007193656   -150377.88   -148922.56 
   23100    611.28671    11.621227      2204118          147  0.007193656   -150454.15   -149007.37 
   23200    630.24668   -145.43444      2204118          147  0.007193656   -150552.55   -149060.91 
   23300    573.46288    23.420154      2204118          147  0.007193656   -150462.84   -149105.59 
   23400    608.17772    51.390443      2204118          147  0.007193656   -150545.78   -149106.37 
   23500    592.43477   -49.346542      2204118          147  0.007193656   -150479.28   -149077.13 
   23600     607.3094     60.77218      2204118          147  0.007193656   -150439.74   -149002.39 
   23700    620.65393   -30.771634      2204118          147  0.007193656   -150455.57   -148986.63 
   23800    578.55417   -162.13506      2204118          147  0.007193656   -150437.65   -149068.35 
   23900    576.61834    12.596677      2204118          147  0.007193656   -150487.72      -149123 
   24000    575.15446   0.82804566      2204118          147  0.007193656   -150488.23   -149126.98 
   24100    569.23516    71.489442      2204118          147  0.007193656   -150436.05    -149088.8 
   24200    632.27384   -81.499918      2204118          147  0.007193656   -150543.51   -149047.06 
   24300    620.69437    127.39296      2204118          147  0.007193656   -150517.46   -149048.42 
   24400     584.0793    159.20265      2204118          147  0.007193656   -150445.53   -149063.15 
   24500    606.01818    42.505451      2204118          147  0.007193656   -150515.92   -149081.62 
   24600    582.97896   -96.901082      2204118          147  0.007193656   -150489.16   -149109.39 
   24700    555.75234    15.345419      2204118          147  0.007193656   -150462.35   -149147.02 
   24800    605.69685     130.5043      2204118          147  0.007193656   -150603.67   -149170.13 
   24900    590.32567    172.66586      2204118          147  0.007193656   -150555.04   -149157.88 
   25000    593.35479   -166.58101      2204118          147  0.007193656   -150492.73    -149088.4 
   25100    608.21917      24.6686      2204118          147  0.007193656    -150448.6   -149009.09 
   25200    607.25014    154.28453      2204118          147  0.007193656   -150454.82   -149017.61 
   25300    609.74682   -48.200399      2204118          147  0.007193656   -150506.86   -149063.73 
   25400    623.63917   -107.76483      2204118          147  0.007193656   -150562.71    -149086.7 
   25500     594.7987    74.082912      2204118          147  0.007193656   -150504.39   -149096.64 
   25600     576.6939    112.76282      2204118          147  0.007193656   -150466.17   -149101.27 
   25700     614.4258    88.892559      2204118          147  0.007193656   -150530.31   -149076.11 
   25800    582.10619   -108.09569      2204118          147  0.007193656   -150477.58   -149099.87 
   25900    582.65619    2.2693344      2204118          147  0.007193656   -150498.99   -149119.99 
   26000    571.43485    111.88156      2204118          147  0.007193656   -150503.87   -149151.42 
   26100    597.02497   -154.66262      2204118          147  0.007193656   -150589.22    -149176.2 
   26200    605.35739   -33.838388      2204118          147  0.007193656   -150610.18   -149177.44 
   26300      613.553    -111.0114      2204118          147  0.007193656   -150524.12   -149071.98 
   26400    637.78084    35.858301      2204118          147  0.007193656   -150527.56   -149018.08 
   26500    607.41726    83.802851      2204118          147  0.007193656   -150498.59   -149060.97 
   26600    590.07388    116.36749      2204118          147  0.007193656   -150523.62   -149127.05 
   26700    608.18944   -90.058406      2204118          147  0.007193656   -150576.34    -149136.9 
   26800    612.08533    66.726338      2204118          147  0.007193656   -150551.12   -149102.46 
   26900    569.95073    182.31835      2204118          147  0.007193656   -150448.93      -149100 
   27000    587.19777     31.72815      2204118          147  0.007193656   -150413.95    -149024.2 
   27100    639.79888   -131.19235      2204118          147  0.007193656   -150430.26   -148916.01 
   27200    635.03374    54.749889      2204118          147  0.007193656   -150474.63   -148971.65 
   27300    583.53356   -48.629906      2204118          147  0.007193656   -150431.24   -149050.16 
   27400    597.77892   -27.667022      2204118          147  0.007193656   -150514.43   -149099.63 
   27500    598.87594   -88.617074      2204118          147  0.007193656   -150557.07   -149139.67 
   27600    555.49152   -29.357995      2204118          147  0.007193656   -150463.81    -149149.1 
   27700    623.85143   -49.466058      2204118          147  0.007193656   -150531.13   -149054.62 
   27800    634.44862   -47.603176      2204118          147  0.007193656   -150508.78   -149007.19 
   27900    605.78624    39.319634      2204118          147  0.007193656   -150477.47   -149043.72 
   28000    613.41585    -19.01235      2204118          147  0.007193656   -150579.43   -149127.62 
   28100    571.14455    181.20761      2204118          147  0.007193656   -150490.45   -149138.68 
   28200    629.78819    123.67975      2204118          147  0.007193656   -150603.74   -149113.18 
   28300    593.58639    127.22919      2204118          147  0.007193656   -150500.35   -149095.47 
   28400    606.21743    -20.74246      2204118          147  0.007193656   -150520.29   -149085.52 
   28500    593.62257   -37.062339      2204118          147  0.007193656   -150497.84   -149092.88 
   28600    610.66534   -133.11445      2204118          147  0.007193656   -150526.05   -149080.75 
   28700    603.80764    75.877748      2204118          147  0.007193656   -150497.79   -149068.72 
   28800    607.29652   0.11675455      2204118          147  0.007193656   -150519.87   -149082.55 
   28900    605.80757   -150.84368      2204118          147  0.007193656   -150549.62   -149115.82 
   29000    534.42815    53.391921      2204118          147  0.007193656   -150446.67    -149181.8 
   29100    593.50039    185.56456      2204118          147  0.007193656   -150597.18   -149192.51 
   29200     591.6353    10.766791      2204118          147  0.007193656   -150512.74   -149112.48 
   29300    617.68915   -11.768847      2204118          147  0.007193656   -150484.01   -149022.09 
   29400    603.55699   -131.03552      2204118          147  0.007193656   -150453.18   -149024.71 
   29500    613.37197     46.48194      2204118          147  0.007193656   -150528.53   -149076.83 
   29600    582.98148    23.773643      2204118          147  0.007193656   -150535.55   -149155.77 
   29700    561.12418   -115.07227      2204118          147  0.007193656   -150488.45   -149160.41 
   29800    587.93981   -68.516546      2204118          147  0.007193656   -150504.72   -149113.21 
   29900    583.54245    64.920129      2204118          147  0.007193656   -150462.68   -149081.57 
   30000    595.18512   -65.888425      2204118          147  0.007193656   -150479.67   -149071.01 
   30100    570.63224    98.444884      2204118          147  0.007193656   -150453.85    -149103.3 
   30200    562.22767    6.4378761      2204118          147  0.007193656   -150520.94   -149190.28 
   30300    580.21688    147.40068      2204118          147  0.007193656    -150613.1   -149239.86 
   30400    588.89198    143.89232      2204118          147  0.007193656   -150560.15   -149166.38 
   30500    621.36319    119.24989      2204118          147  0.007193656   -150578.18   -149107.56 
   30600    588.96076   -63.024339      2204118          147  0.007193656   -150484.05   -149090.12 
   30700    605.59881    218.58384      2204118          147  0.007193656   -150509.17   -149075.86 
   30800    632.13746   -2.3465112      2204118          147  0.007193656   -150536.84   -149040.72 
   30900    595.54558   0.16400103      2204118          147  0.007193656   -150473.93   -149064.41 
   31000    587.17201    -133.1954      2204118          147  0.007193656   -150530.15   -149140.45 
   31100    603.11456   -105.24254      2204118          147  0.007193656   -150569.21   -149141.78 
   31200    625.79799   -22.989752      2204118          147  0.007193656   -150548.03   -149066.91 
   31300    599.69716    4.3440855      2204118          147  0.007193656   -150398.77   -148979.43 
   31400    587.18445   -34.133593      2204118          147  0.007193656   -150387.41   -148997.69 
   31500    602.07422    122.10632      2204118          147  0.007193656   -150469.93   -149044.96 
   31600    621.81107   -48.465197      2204118          147  0.007193656   -150532.99   -149061.31 
   31700    564.28616   -33.620983      2204118          147  0.007193656   -150414.57   -149079.04 
   31800    582.98412   -16.597615      2204118          147  0.007193656   -150463.41   -149083.63 
   31900    614.04708   -52.713413      2204118          147  0.007193656   -150536.41   -149083.11 
   32000    603.61135   -80.687921      2204118          147  0.007193656   -150521.16   -149092.56 
   32100    579.14198   -25.256569      2204118          147  0.007193656   -150465.69      -149095 
   32200    638.55527    10.709231      2204118          147  0.007193656   -150529.27   -149017.96 
   32300    624.00453    102.98334      2204118          147  0.007193656   -150466.68   -148989.81 
   32400    610.19806    177.22045      2204118          147  0.007193656   -150490.47   -149046.27 
   32500     603.0716    35.856506      2204118          147  0.007193656   -150537.52   -149110.19 
   32600    569.82498    6.8188265      2204118          147  0.007193656   -150478.57   -149129.93 
   32700    587.42639   -49.995536      2204118          147  0.007193656   -150451.27   -149060.97 
   32800    606.03796    170.66807      2204118          147  0.007193656   -150408.98   -148974.63 
   32900    612.82902   -63.726336      2204118          147  0.007193656   -150444.83   -148994.41 
   33000    618.05759     11.55465      2204118          147  0.007193656   -150511.86   -149049.06 
   33100      610.676    19.317236      2204118          147  0.007193656   -150529.61   -149084.29 
   33200    605.68403    101.32814      2204118          147  0.007193656   -150519.76   -149086.25 
   33300    574.67312   -19.275328      2204118          147  0.007193656   -150456.43   -149096.31 
   33400    572.50073   -167.20032      2204118          147  0.007193656   -150468.89   -149113.92 
   33500    585.24254    68.514351      2204118          147  0.007193656   -150480.43    -149095.3 
   33600    598.63057    85.580585      2204118          147  0.007193656   -150460.14   -149043.32 
   33700    631.22644   -13.890685      2204118          147  0.007193656   -150494.26    -149000.3 
   33800    602.79985    -5.774661      2204118          147  0.007193656    -150442.2   -149015.51 
   33900    591.81016    87.432131      2204118          147  0.007193656   -150519.66   -149118.99 
   34000    633.54877   -70.767921      2204118          147  0.007193656   -150636.68   -149137.22 
   34100    582.35113     225.8334      2204118          147  0.007193656   -150494.79    -149116.5 
   34200    617.53493   -189.52432      2204118          147  0.007193656   -150481.79   -149020.23 
   34300    617.20597   -49.978353      2204118          147  0.007193656   -150417.61   -148956.83 
   34400    628.54088   -133.50903      2204118          147  0.007193656   -150451.09   -148963.48 
   34500    607.94696    33.678875      2204118          147  0.007193656   -150477.26    -149038.4 
   34600    590.06359    120.05015      2204118          147  0.007193656   -150489.52   -149092.98 
   34700    583.34111  -0.40080641      2204118          147  0.007193656   -150493.54   -149112.91 
   34800    585.21394   -125.64437      2204118          147  0.007193656   -150500.58   -149115.51 
   34900    596.60559   0.15992907      2204118          147  0.007193656   -150468.69   -149056.67 
   35000    636.19502    184.55496      2204118          147  0.007193656   -150489.62    -148983.9 
   35100    579.61443    13.864578      2204118          147  0.007193656   -150390.51    -149018.7 
   35200    567.74261    24.527268      2204118          147  0.007193656   -150450.17   -149106.46 
   35300    606.24881   -55.317744      2204118          147  0.007193656   -150550.83   -149115.98 
   35400    587.86669    114.51087      2204118          147  0.007193656   -150498.65   -149107.31 
   35500    592.54837    103.22093      2204118          147  0.007193656    -150483.1   -149080.68 
   35600      623.267   -93.193787      2204118          147  0.007193656   -150499.42    -149024.3 
   35700    629.03361   -68.288337      2204118          147  0.007193656   -150448.72   -148959.95 
   35800     641.3811   -88.579233      2204118          147  0.007193656   -150463.08   -148945.08 
   35900    614.09308   -42.742751      2204118          147  0.007193656   -150521.82   -149068.41 
   36000    582.62235    56.668613      2204118          147  0.007193656   -150492.24   -149113.31 
   36100    610.88082    28.255118      2204118          147  0.007193656   -150562.39   -149116.58 
   36200    586.11915   -51.529278      2204118          147  0.007193656   -150516.72   -149129.51 
   36300    587.64963    144.55861      2204118          147  0.007193656   -150472.66   -149081.83 
   36400    643.98083    110.90412      2204118          147  0.007193656   -150528.73   -149004.58 
   36500     632.2874    122.35884      2204118          147  0.007193656   -150521.59   -149025.11 
   36600    601.43342   -89.004861      2204118          147  0.007193656   -150525.22   -149101.77 
   36700    599.86565   -129.66246      2204118          147  0.007193656   -150532.99   -149113.25 
   36800    608.28903   0.79693869      2204118          147  0.007193656    -150515.2   -149075.52 
   36900    599.45967    102.14416      2204118          147  0.007193656   -150467.97   -149049.19 
   37000    617.76049   -64.934611      2204118          147  0.007193656   -150469.36   -149007.27 
   37100    657.24016   -174.34355      2204118          147  0.007193656   -150528.34   -148972.81 
   37200    635.95881   -67.569591      2204118          147  0.007193656   -150531.84   -149026.68 
   37300    588.10978    145.19724      2204118          147  0.007193656   -150503.76   -149111.84 
   37400    590.89589    191.58248      2204118          147  0.007193656   -150541.05   -149142.54 
   37500    596.59184   -27.761089      2204118          147  0.007193656   -150527.21   -149115.22 
   37600    622.69373   -52.900305      2204118          147  0.007193656   -150501.42   -149027.65 
   37700    625.11369    -20.60431      2204118          147  0.007193656   -150496.75   -149017.25 
   37800    586.05851    175.55079      2204118          147  0.007193656      -150436   -149048.94 
   37900    601.79084   -209.83476      2204118          147  0.007193656   -150496.53   -149072.24 
   38000    574.00422   -42.527313      2204118          147  0.007193656   -150427.93    -149069.4 
   38100    619.23868   -37.122729      2204118          147  0.007193656   -150484.15   -149018.56 
   38200    626.60662    240.86497      2204118          147  0.007193656   -150420.59   -148937.56 
   38300    603.03375    35.152667      2204118          147  0.007193656   -150394.44   -148967.21 
   38400     608.7988   -75.812045      2204118          147  0.007193656   -150510.01   -149069.13 
   38500    603.12085   -127.42078      2204118          147  0.007193656   -150522.73   -149095.28 
   38600    589.21836    62.977571      2204118          147  0.007193656   -150493.76   -149099.22 
   38700    603.02603    126.13435      2204118          147  0.007193656   -150513.05   -149085.83 
   38800    607.33757    133.75423      2204118          147  0.007193656   -150484.57   -149047.15 
   38900    608.68438    2.7756182      2204118          147  0.007193656    -150433.8   -148993.19 
   39000    619.82393    33.460117      2204118          147  0.007193656    -150459.7   -148992.73 
   39100    604.63592   -29.932351      2204118          147  0.007193656   -150514.97   -149083.94 
   39200    592.37011    84.358852      2204118          147  0.007193656      -150536      -149134 
   39300    567.80263   -89.323058      2204118          147  0.007193656   -150461.98   -149118.12 
   39400    614.87174   -119.65618      2204118          147  0.007193656   -150515.58   -149060.32 
   39500    655.28572   -164.89971      2204118          147  0.007193656   -150531.13   -148980.22 
   39600    630.93345    123.50233      2204118          147  0.007193656   -150402.88   -148909.61 
   39700    627.72014    210.02524      2204118          147  0.007193656   -150440.31   -148954.64 
   39800    585.49008    22.888577      2204118          147  0.007193656   -150439.83   -149054.11 
   39900    576.24141   -215.41937      2204118          147  0.007193656   -150479.89   -149116.06 
   40000    587.40236    -20.09849      2204118          147  0.007193656   -150506.16   -149115.91 
   40100    590.94699    159.70606      2204118          147  0.007193656   -150497.01   -149098.38 
   40200    619.22186   -10.480693      2204118          147  0.007193656   -150559.95    -149094.4 
   40300    588.11879   -224.75811      2204118          147  0.007193656   -150510.28   -149118.34 
   40400    598.20129   -17.665414      2204118          147  0.007193656   -150529.43   -149113.63 
   40500     641.3074    5.2642369      2204118          147  0.007193656   -150579.28   -149061.46 
   40600    643.25867    22.358498      2204118          147  0.007193656   -150555.84    -149033.4 
   40700    600.66968   -198.11978      2204118          147  0.007193656   -150545.97   -149124.33 
   40800    582.56341   -146.32746      2204118          147  0.007193656   -150536.91   -149158.12 
   40900    593.76723    24.201195      2204118          147  0.007193656   -150538.31      -149133 
   41000    603.79996    79.657621      2204118          147  0.007193656   -150493.06   -149064.01 
   41100    616.18697    -130.6847      2204118          147  0.007193656    -150407.6   -148949.23 
   41200    620.67588    -110.9213      2204118          147  0.007193656   -150421.62   -148952.63 
   41300     601.3219     137.6852      2204118          147  0.007193656   -150488.13   -149064.94 
   41400    608.08519   -19.738734      2204118          147  0.007193656   -150537.75   -149098.56 
   41500     609.7504   -73.952987      2204118          147  0.007193656   -150583.76   -149140.62 
   41600    569.31225   -146.60897      2204118          147  0.007193656   -150510.44   -149163.01 
   41700    600.38901   -157.32011      2204118          147  0.007193656   -150516.75   -149095.77 
   41800     615.4758    229.71416      2204118          147  0.007193656   -150495.29   -149038.61 
   41900    628.00291   -59.230855      2204118          147  0.007193656   -150502.93    -149016.6 
   42000    613.58494    -144.0361      2204118          147  0.007193656   -150577.04   -149124.83 
   42100    582.62802   -15.216147      2204118          147  0.007193656   -150543.16   -149164.21 
   42200    596.00217     225.8513      2204118          147  0.007193656   -150551.95   -149141.36 
   42300     575.1259    314.85434      2204118          147  0.007193656   -150432.29    -149071.1 
   42400    623.50971   -99.496687      2204118          147  0.007193656   -150507.04   -149031.34 
   42500    599.21703    -127.2586      2204118          147  0.007193656   -150457.09   -149038.88 
   42600    586.93824    64.820476      2204118          147  0.007193656      -150535   -149145.86 
   42700    593.94161    175.69051      2204118          147  0.007193656   -150597.47   -149191.76 
   42800    623.12376    17.841468      2204118          147  0.007193656   -150633.38    -149158.6 
   42900     595.2251   -124.24355      2204118          147  0.007193656   -150476.97   -149068.22 
   43000     612.7703   -7.2138255      2204118          147  0.007193656   -150477.45   -149027.16 
   43100    618.51859    191.55255      2204118          147  0.007193656   -150518.69    -149054.8 
   43200    592.25012     4.186964      2204118          147  0.007193656   -150501.86   -149100.14 
   43300     559.5941   -8.5867668      2204118          147  0.007193656   -150451.82   -149127.39 
   43400    597.58943   -88.155548      2204118          147  0.007193656   -150475.24   -149060.89 
   43500    663.56182    -27.09921      2204118          147  0.007193656   -150542.89    -148972.4 
   43600    638.87301    117.39794      2204118          147  0.007193656   -150544.45   -149032.39 
   43700    616.02384   -75.036485      2204118          147  0.007193656    -150570.8   -149112.82 
   43800    573.77994   -47.192958      2204118          147  0.007193656   -150496.65   -149138.65 
   43900     611.7696    49.330287      2204118          147  0.007193656   -150539.85   -149091.94 
   44000    639.38907    64.551537      2204118          147  0.007193656   -150524.03   -149010.75 
   44100    607.31214    28.868936      2204118          147  0.007193656   -150454.95   -149017.58 
   44200    607.76356   -276.25946      2204118          147  0.007193656   -150486.25   -149047.82 
   44300    614.58754   -66.131966      2204118          147  0.007193656   -150533.22   -149078.64 
   44400    592.17837   -107.22077      2204118          147  0.007193656   -150521.48   -149119.93 
   44500    582.93594    149.18795      2204118          147  0.007193656   -150558.82   -149179.15 
   44600     577.0806   -51.995952      2204118          147  0.007193656   -150635.04   -149269.23 
   44700    551.29186   -114.91432      2204118          147  0.007193656   -150535.99   -149231.21 
   44800    628.29487    87.668188      2204118          147  0.007193656   -150633.61   -149146.59 
   44900    625.36116   -60.380239      2204118          147  0.007193656   -150577.08      -149097 
   45000    612.55352   -47.041579      2204118          147  0.007193656   -150495.28   -149045.51 
   45100    623.09124   -143.02319      2204118          147  0.007193656   -150507.94   -149033.23 
   45200    593.05403   -20.828374      2204118          147  0.007193656   -150536.19   -149132.57 
   45300    607.66602     116.4607      2204118          147  0.007193656   -150585.67   -149147.47 
   45400    580.99774    -24.76982      2204118          147  0.007193656   -150508.03   -149132.95 
   45500    612.64178    66.095151      2204118          147  0.007193656   -150527.78    -149077.8 
   45600    616.75067    160.26109      2204118          147  0.007193656   -150471.04   -149011.34 
   45700    650.12898    63.326604      2204118          147  0.007193656   -150464.36   -148925.66 
   45800    663.66007    41.696353      2204118          147  0.007193656   -150483.27   -148912.55 
   45900    624.29604     20.64658      2204118          147  0.007193656   -150503.05   -149025.49 
   46000    596.29962   -69.696143      2204118          147  0.007193656    -150495.4    -149084.1 
   46100    588.44849     42.97912      2204118          147  0.007193656   -150534.84   -149142.12 
   46200    588.67712    32.338976      2204118          147  0.007193656   -150549.92   -149156.66 
   46300    577.82017   -79.207093      2204118          147  0.007193656   -150515.23   -149147.66 
   46400    626.85368    94.957256      2204118          147  0.007193656   -150538.72   -149055.11 
   46500    600.04028    54.080206      2204118          147  0.007193656   -150442.69   -149022.53 
   46600    603.19662   -106.18142      2204118          147  0.007193656   -150506.14   -149078.52 
   46700    615.44661   -17.335004      2204118          147  0.007193656   -150598.31    -149141.7 
   46800    604.37822   -2.2552893      2204118          147  0.007193656    -150577.5   -149147.08 
   46900     579.0214   -80.805314      2204118          147  0.007193656   -150499.28   -149128.88 
   47000     584.7346   -117.46519      2204118          147  0.007193656   -150504.08   -149120.15 
   47100    620.76776    72.054298      2204118          147  0.007193656   -150560.56   -149091.35 
   47200    600.85433     59.61013      2204118          147  0.007193656   -150417.07   -148994.99 
   47300    621.47705   -127.36095      2204118          147  0.007193656   -150443.32   -148972.43 
   47400    590.19365   -15.963195      2204118          147  0.007193656   -150489.06   -149092.21 
   47500     571.3011   -49.282591      2204118          147  0.007193656   -150492.12   -149139.98 
   47600    581.02504   -22.258024      2204118          147  0.007193656   -150498.85    -149123.7 
   47700    609.33242     36.96781      2204118          147  0.007193656   -150524.49   -149082.35 
   47800    618.41938    23.220894      2204118          147  0.007193656    -150537.7   -149074.05 
   47900    600.27894   -69.347194      2204118          147  0.007193656   -150528.54   -149107.82 
   48000    601.08405     43.90523      2204118          147  0.007193656   -150605.17   -149182.54 
   48100    590.22171    112.01615      2204118          147  0.007193656   -150620.58   -149223.66 
   48200    601.44119    28.280647      2204118          147  0.007193656   -150605.03   -149181.56 
   48300    615.46027   0.74801809      2204118          147  0.007193656   -150564.81   -149108.16 
   48400    633.47433    60.707004      2204118          147  0.007193656   -150582.82   -149083.53 
   48500    602.13144   -113.67961      2204118          147  0.007193656   -150528.05   -149102.95 
   48600    595.13336    -12.30803      2204118          147  0.007193656    -150539.3   -149130.76 
   48700    578.27348    61.107707      2204118          147  0.007193656   -150554.88   -149186.24 
   48800    584.56852     48.76236      2204118          147  0.007193656   -150631.46   -149247.93 
   48900     590.3511   -136.55918      2204118          147  0.007193656   -150639.39   -149242.17 
   49000    583.73729    78.725072      2204118          147  0.007193656   -150494.99   -149113.43 
   49100    588.98198    34.234618      2204118          147  0.007193656   -150470.38    -149076.4 
   49200     601.4095   -11.999459      2204118          147  0.007193656   -150514.48   -149091.09 
   49300    597.12478   -31.708055      2204118          147  0.007193656   -150558.31   -149145.06 
   49400     593.0214    79.418818      2204118          147  0.007193656   -150619.05   -149215.51 
   49500    585.51899   -126.35233      2204118          147  0.007193656   -150612.59    -149226.8 
   49600    585.87651   -70.510423      2204118          147  0.007193656    -150482.2   -149095.57 
   49700    598.90298   -128.47934      2204118          147  0.007193656    -150474.7   -149057.23 
   49800    625.00615   -64.343211      2204118          147  0.007193656   -150545.98   -149066.74 
   49900    611.98964   -35.630467      2204118          147  0.007193656   -150594.08   -149145.64 
   50000    561.73287   -182.86124      2204118          147  0.007193656   -150494.74   -149165.25 
   50100    587.77417    37.103168      2204118          147  0.007193656   -150525.71   -149134.59 
   50200    614.13505    120.90397      2204118          147  0.007193656    -150566.4   -149112.89 
   50300    593.32063    123.40471      2204118          147  0.007193656   -150526.57   -149122.33 
   50400    585.64422   -29.407318      2204118          147  0.007193656   -150514.37   -149128.29 
   50500    571.03542    34.027521      2204118          147  0.007193656   -150462.66   -149111.16 
   50600    612.22981    92.151183      2204118          147  0.007193656   -150506.27   -149057.27 
   50700    654.53204   -117.01752      2204118          147  0.007193656   -150606.07   -149056.95 
   50800    578.85944   -117.24026      2204118          147  0.007193656   -150502.62   -149132.59 
   50900    594.61091   -106.96452      2204118          147  0.007193656   -150582.47   -149175.17 
   51000    589.22502   -93.812682      2204118          147  0.007193656   -150538.96    -149144.4 
   51100    617.74477    99.745358      2204118          147  0.007193656    -150556.6   -149094.54 
   51200    636.95875   -21.052995      2204118          147  0.007193656   -150597.89   -149090.36 
   51300    601.13954    13.432716      2204118          147  0.007193656   -150546.35   -149123.59 
   51400     567.8327   -101.14748      2204118          147  0.007193656   -150484.18   -149140.26 
   51500    602.31258   -134.71301      2204118          147  0.007193656   -150587.13    -149161.6 
   51600     594.7865    100.61941      2204118          147  0.007193656   -150566.72      -149159 
   51700    598.25719    118.70705      2204118          147  0.007193656   -150517.23   -149101.29 
   51800    623.12917   -147.32369      2204118          147  0.007193656   -150519.11   -149044.31 
   51900    611.57747   -86.092362      2204118          147  0.007193656   -150464.64   -149017.18 
   52000    574.97095    86.909097      2204118          147  0.007193656   -150442.06   -149081.24 
   52100    607.50521    268.56883      2204118          147  0.007193656   -150596.53   -149158.71 
   52200    585.87726    -21.88551      2204118          147  0.007193656   -150564.82   -149178.19 
   52300     581.6189   -205.22514      2204118          147  0.007193656   -150522.67   -149146.12 
   52400     614.7002    197.95149      2204118          147  0.007193656   -150501.43   -149046.58 
   52500    625.98691   -16.518215      2204118          147  0.007193656   -150521.74   -149040.18 
   52600    620.66281   -41.670433      2204118          147  0.007193656   -150566.73   -149097.77 
   52700    596.25439    -75.70667      2204118          147  0.007193656   -150516.15   -149104.96 
   52800    609.84325     54.77567      2204118          147  0.007193656   -150549.06   -149105.71 
   52900    596.21851   -54.389343      2204118          147  0.007193656   -150535.08   -149123.97 
   53000    567.76651    50.901962      2204118          147  0.007193656   -150525.21   -149181.45 
   53100    570.52823   -199.28435      2204118          147  0.007193656   -150570.15   -149219.84 
   53200    584.63519    -5.789221      2204118          147  0.007193656   -150553.11   -149169.42 
   53300    608.66334   -21.495359      2204118          147  0.007193656   -150508.27   -149067.71 
   53400    640.46651    26.088261      2204118          147  0.007193656    -150560.3   -149044.47 
   53500    562.62638   -182.49414      2204118          147  0.007193656   -150438.52   -149106.92 
   53600    601.07179   -68.227288      2204118          147  0.007193656   -150572.08   -149149.49 
   53700    606.19851   -14.269356      2204118          147  0.007193656   -150570.37   -149135.64 
   53800    586.12694    135.71714      2204118          147  0.007193656   -150514.97   -149127.75 
   53900     611.8096   -1.8186462      2204118          147  0.007193656   -150583.94   -149135.93 
   54000    590.25285   -157.77784      2204118          147  0.007193656   -150549.27   -149152.28 
   54100    597.19256    30.956788      2204118          147  0.007193656   -150590.36   -149176.94 
   54200    585.64416    171.21417      2204118          147  0.007193656   -150586.34   -149200.26 
   54300    600.35514    8.0924909      2204118          147  0.007193656    -150613.4    -149192.5 
   54400    608.52918   -180.31388      2204118          147  0.007193656   -150549.04    -149108.8 
   54500    599.26661   -157.83002      2204118          147  0.007193656   -150484.72    -149066.4 
   54600    622.31883   -12.150671      2204118          147  0.007193656   -150563.38    -149090.5 
   54700    581.20294    -4.535827      2204118          147  0.007193656   -150556.92   -149181.35 
   54800    579.72404   -64.181692      2204118          147  0.007193656   -150569.19   -149197.13 
   54900     637.6082    9.8914787      2204118          147  0.007193656   -150668.07   -149159.01 
   55000    589.48685    100.72758      2204118          147  0.007193656   -150524.79   -149129.61 
   55100    608.92957    56.824728      2204118          147  0.007193656   -150549.69    -149108.5 
   55200    619.38515   -26.159651      2204118          147  0.007193656   -150580.26   -149114.32 
   55300    609.53916    38.571819      2204118          147  0.007193656   -150627.82   -149185.18 
   55400    573.14028    151.23913      2204118          147  0.007193656   -150580.67   -149224.18 
   55500    616.94456    143.15228      2204118          147  0.007193656   -150646.15   -149185.99 
   55600    608.68064   -200.26562      2204118          147  0.007193656   -150536.81    -149096.2 
   55700    597.84734   -74.091999      2204118          147  0.007193656   -150479.94   -149064.98 
   55800    606.54692   -103.95746      2204118          147  0.007193656   -150517.25    -149081.7 
   55900    636.30424    93.239683      2204118          147  0.007193656   -150623.91   -149117.93 
   56000    607.29119    -10.39025      2204118          147  0.007193656   -150602.31   -149164.99 
   56100    617.26803   -53.099168      2204118          147  0.007193656   -150644.44   -149183.51 
   56200    615.48018    -5.678031      2204118          147  0.007193656   -150630.09    -149173.4 
   56300    613.12529    -74.29665      2204118          147  0.007193656   -150620.63   -149169.51 
   56400    611.32671    -66.69364      2204118          147  0.007193656   -150614.21   -149167.34 
   56500    602.82886    149.83964      2204118          147  0.007193656   -150571.66   -149144.91 
   56600    605.22998    15.863008      2204118          147  0.007193656   -150529.13   -149096.69 
   56700    599.29367   -198.27683      2204118          147  0.007193656   -150475.56   -149057.17 
   56800    623.23621    48.058548      2204118          147  0.007193656    -150517.5   -149042.45 
   56900    586.48065    100.12931      2204118          147  0.007193656   -150515.13   -149127.07 
   57000    581.51081    94.182971      2204118          147  0.007193656   -150572.56   -149196.26 
   57100    566.16409   -93.442312      2204118          147  0.007193656   -150528.76   -149188.78 
   57200    602.72358   -121.57015      2204118          147  0.007193656   -150553.45   -149126.95 
   57300    599.48624    130.89001      2204118          147  0.007193656   -150474.21   -149055.36 
   57400    620.58673     259.6427      2204118          147  0.007193656   -150534.82   -149066.04 
   57500     585.0467   -90.005763      2204118          147  0.007193656   -150575.83   -149191.16 
   57600    555.26324   -42.197722      2204118          147  0.007193656   -150525.32   -149211.15 
   57700    575.58772   -121.17323      2204118          147  0.007193656   -150512.97   -149150.69 
   57800    569.75328    22.898939      2204118          147  0.007193656    -150425.1   -149076.63 
   57900    592.35578    105.73092      2204118          147  0.007193656   -150463.03   -149061.07 
   58000    617.81189   -124.69853      2204118          147  0.007193656   -150556.88   -149094.67 
   58100     599.4688    26.156477      2204118          147  0.007193656    -150563.4    -149144.6 
   58200     606.9994    43.594886      2204118          147  0.007193656   -150597.16   -149160.53 
   58300    581.27469    156.78297      2204118          147  0.007193656   -150557.42   -149181.68 
   58400    591.03626   -15.530729      2204118          147  0.007193656   -150579.07   -149180.23 
   58500    622.76693      93.0173      2204118          147  0.007193656   -150595.75    -149121.8 
   58600    595.23092   -50.781162      2204118          147  0.007193656   -150462.72   -149053.95 
   58700    614.06936    64.345247      2204118          147  0.007193656   -150469.17   -149015.81 
   58800    642.33834   -44.582627      2204118          147  0.007193656   -150654.26   -149133.99 
   58900    580.40407   -73.791958      2204118          147  0.007193656    -150560.5   -149186.82 
   59000    589.31372   -132.74013      2204118          147  0.007193656   -150555.99   -149161.23 
   59100    607.06632    98.792026      2204118          147  0.007193656   -150536.34   -149099.55 
   59200    628.22315    63.469642      2204118          147  0.007193656   -150557.56    -149070.7 
   59300    579.11685   -31.838922      2204118          147  0.007193656   -150514.04   -149143.41 
   59400    602.90578   -189.13969      2204118          147  0.007193656   -150652.99   -149226.06 
   59500    571.15632    48.255403      2204118          147  0.007193656   -150568.38   -149216.59 
   59600    582.88754    80.209556      2204118          147  0.007193656   -150543.24   -149163.68 
   59700    625.15481   -38.354204      2204118          147  0.007193656    -150611.6      -149132 
   59800    568.53122   -52.123111      2204118          147  0.007193656   -150473.97   -149128.39 
   59900    624.31774   -56.327302      2204118          147  0.007193656   -150595.55   -149117.94 
   60000    576.32287    133.35632      2204118          147  0.007193656   -150517.67   -149153.65 
   60100    567.37752   -49.059772      2204118          147  0.007193656   -150587.92   -149245.07 
   60200    583.20985    -129.4533      2204118          147  0.007193656   -150634.11   -149253.79 
   60300    568.45623    74.922391      2204118          147  0.007193656   -150518.93   -149173.53 
   60400    582.34572   -77.516299      2204118          147  0.007193656   -150499.79   -149121.51 
   60500    632.17669   -39.605084      2204118          147  0.007193656   -150601.93   -149105.72 
   60600     618.8084    58.368152      2204118          147  0.007193656   -150585.58   -149121.01 
   60700    567.04484   -160.21672      2204118          147  0.007193656   -150552.87   -149210.81 
   60800     587.3392    157.33758      2204118          147  0.007193656   -150642.72   -149252.63 
   60900    586.84497    120.79881      2204118          147  0.007193656   -150602.72    -149213.8 
   61000    639.45439    198.28218      2204118          147  0.007193656   -150632.52   -149119.08 
   61100    591.32173   -59.384024      2204118          147  0.007193656   -150513.85   -149114.33 
   61200    588.81024   -118.63079      2204118          147  0.007193656   -150527.75   -149134.17 
   61300    615.68567   -32.255557      2204118          147  0.007193656   -150608.71   -149151.53 
   61400     539.5429    89.737072      2204118          147  0.007193656   -150494.55   -149217.58 
   61500    573.45439   -20.352407      2204118          147  0.007193656   -150581.71   -149224.48 
   61600    616.42942   -128.75375      2204118          147  0.007193656   -150602.18   -149143.24 
   61700    611.23184   -52.486516      2204118          147  0.007193656   -150515.47   -149068.83 
   61800     595.2058    117.55015      2204118          147  0.007193656   -150482.37   -149073.66 
   61900    603.95352    52.074363      2204118          147  0.007193656   -150558.82   -149129.41 
   62000    587.73168   -21.183295      2204118          147  0.007193656   -150597.71   -149206.68 
   62100    599.63752   -17.474626      2204118          147  0.007193656   -150657.02   -149237.82 
   62200    587.78177    24.277707      2204118          147  0.007193656   -150601.76   -149210.62 
   62300    567.05342    168.94685      2204118          147  0.007193656   -150509.33   -149167.25 
   62400    605.72619     70.87837      2204118          147  0.007193656    -150542.4   -149108.79 
   62500    612.59931  -0.95411271      2204118          147  0.007193656   -150546.38   -149096.51 
   62600    588.95089   -175.46583      2204118          147  0.007193656   -150597.93   -149204.02 
   62700     580.9416    72.669683      2204118          147  0.007193656   -150633.62   -149258.67 
   62800    583.44116    152.03575      2204118          147  0.007193656   -150612.51   -149231.65 
   62900    615.00636   -29.517067      2204118          147  0.007193656   -150607.57   -149151.99 
   63000    624.15919   -61.584838      2204118          147  0.007193656   -150597.74   -149120.51 
   63100    574.08587    66.422744      2204118          147  0.007193656   -150483.05   -149124.33 
   63200    612.71837    94.148117      2204118          147  0.007193656   -150609.68   -149159.52 
   63300    591.61602   -28.954337      2204118          147  0.007193656   -150627.22      -149227 
   63400    552.07016   -42.373034      2204118          147  0.007193656    -150612.8   -149306.19 
   63500    585.29429    14.333131      2204118          147  0.007193656   -150759.81   -149374.56 
   63600    583.26383    114.62061      2204118          147  0.007193656   -150666.63   -149286.18 
   63700    598.64345    12.284132      2204118          147  0.007193656   -150618.67   -149201.83 
   63800    577.79481   -52.884309      2204118          147  0.007193656   -150513.55   -149146.04 
   63900    614.13478   -92.933521      2204118          147  0.007193656   -150540.18   -149086.67 
   64000     595.4607    67.567718      2204118          147  0.007193656   -150473.95   -149064.64 
   64100    603.55322    137.74144      2204118          147  0.007193656   -150561.01   -149132.54 
   64200    601.10271   -155.20208      2204118          147  0.007193656   -150639.85   -149217.18 
   64300    590.58898    107.15847      2204118          147  0.007193656   -150621.71   -149223.93 
   64400    596.31918    30.922878      2204118          147  0.007193656   -150581.77   -149170.42 
   64500    596.73082    133.65176      2204118          147  0.007193656   -150520.86   -149108.53 
   64600    621.07893    13.948855      2204118          147  0.007193656   -150585.87   -149115.92 
   64700    582.47723   -114.48151      2204118          147  0.007193656   -150606.53   -149227.95 
   64800    578.68998    -13.52126      2204118          147  0.007193656   -150643.11   -149273.49 
   64900     600.2703    5.1021785      2204118          147  0.007193656   -150642.62   -149221.92 
   65000    567.26643   -80.280586      2204118          147  0.007193656   -150496.72   -149154.13 
   65100     604.1998   -223.64705      2204118          147  0.007193656   -150548.41   -149118.41 
   65200    601.62619   -131.00795      2204118          147  0.007193656   -150548.85   -149124.94 
   65300    623.01358   -14.418531      2204118          147  0.007193656   -150648.38   -149173.85 
   65400    571.93727    163.80348      2204118          147  0.007193656   -150647.47   -149293.83 
   65500    553.03259   -42.096851      2204118          147  0.007193656   -150634.83   -149325.93 
   65600    585.92698   -135.30741      2204118          147  0.007193656    -150646.5   -149259.75 
   65700    584.86983   -34.783043      2204118          147  0.007193656   -150553.63   -149169.38 
   65800    616.78545    77.482866      2204118          147  0.007193656   -150584.44   -149124.65 
   65900    620.73709    146.16218      2204118          147  0.007193656   -150583.06   -149113.92 
   66000     589.1566   -32.221888      2204118          147  0.007193656   -150550.83   -149156.43 
   66100    579.63769   -125.78407      2204118          147  0.007193656    -150605.5   -149233.64 
   66200    600.40211    133.64313      2204118          147  0.007193656   -150669.21    -149248.2 
   66300    583.95235    23.843327      2204118          147  0.007193656   -150548.83   -149166.75 
   66400    645.89297   -61.053998      2204118          147  0.007193656    -150609.5   -149080.83 
   66500    619.17059   -280.31019      2204118          147  0.007193656   -150563.47   -149098.04 
   66600    598.53421    95.101176      2204118          147  0.007193656   -150571.87   -149155.28 
   66700    581.34196    181.05172      2204118          147  0.007193656   -150597.14   -149221.24 
   66800    593.96238    66.754445      2204118          147  0.007193656   -150616.18   -149210.41 
   66900    583.37061   -104.73057      2204118          147  0.007193656   -150518.04   -149137.34 
   67000    630.86042    146.47615      2204118          147  0.007193656   -150533.42   -149040.32 
   67100    627.28479    118.46779      2204118          147  0.007193656   -150542.29   -149057.65 
   67200    621.66473   -99.491968      2204118          147  0.007193656   -150606.88   -149135.55 
   67300    594.76852   -100.12309      2204118          147  0.007193656   -150570.86   -149163.19 
   67400    589.01353    103.21454      2204118          147  0.007193656   -150576.05      -149182 
   67500     572.7448    82.663779      2204118          147  0.007193656   -150538.42   -149182.87 
   67600    622.37843    38.355318      2204118          147  0.007193656   -150620.47   -149147.45 
   67700    602.00389   -87.650618      2204118          147  0.007193656    -150546.3    -149121.5 
   67800    620.91688    55.971814      2204118          147  0.007193656   -150554.06    -149084.5 
   67900    612.46372    37.170355      2204118          147  0.007193656   -150561.79   -149112.23 
   68000    609.90817    165.02722      2204118          147  0.007193656   -150644.75   -149201.24 
   68100    573.25411    50.107383      2204118          147  0.007193656   -150593.97   -149237.21 
   68200    568.56303    15.784047      2204118          147  0.007193656   -150547.52   -149201.87 
   68300    596.55652   -5.7933865      2204118          147  0.007193656   -150542.32   -149130.41 
   68400    595.84864   -35.284104      2204118          147  0.007193656   -150541.94   -149131.71 
   68500    584.44385   -46.995601      2204118          147  0.007193656   -150528.84    -149145.6 
   68600     616.0189   -33.885447      2204118          147  0.007193656   -150609.37   -149151.39 
   68700    598.67816    226.27745      2204118          147  0.007193656   -150578.52   -149161.59 
   68800    595.35339   -73.154371      2204118          147  0.007193656    -150617.8   -149208.74 
   68900    560.10532    39.622635      2204118          147  0.007193656   -150547.46   -149221.83 
   69000    595.81517    128.99531      2204118          147  0.007193656   -150558.25    -149148.1 
   69100    623.43314   -48.371941      2204118          147  0.007193656   -150565.62   -149090.11 
   69200    594.85362    151.81132      2204118          147  0.007193656   -150504.99   -149097.11 
   69300    581.80085   -166.02041      2204118          147  0.007193656   -150527.51   -149150.53 
   69400    601.26712    38.944018      2204118          147  0.007193656   -150626.62   -149203.56 
   69500    584.83397   -54.675721      2204118          147  0.007193656   -150706.74   -149322.57 
   69600    573.04992   -27.066835      2204118          147  0.007193656   -150660.94   -149304.67 
   69700    582.02732    41.782059      2204118          147  0.007193656   -150578.62    -149201.1 
   69800     618.1331   -53.051139      2204118          147  0.007193656   -150606.56   -149143.58 
   69900    590.19084   -41.136944      2204118          147  0.007193656   -150486.03   -149089.19 
   70000    636.34965     30.94515      2204118          147  0.007193656   -150570.68   -149064.59 
   70100    605.78429    116.43026      2204118          147  0.007193656   -150589.42   -149155.67 
   70200      575.534    81.157219      2204118          147  0.007193656   -150571.27   -149209.12 
   70300    607.18531    18.246528      2204118          147  0.007193656   -150621.89   -149184.82 
   70400    616.89247   -3.6514524      2204118          147  0.007193656   -150597.23   -149137.19 
   70500    598.06952   -134.22217      2204118          147  0.007193656   -150501.92   -149086.43 
   70600    619.35591    -112.3305      2204118          147  0.007193656   -150460.99   -148995.12 
   70700    644.59157     41.03559      2204118          147  0.007193656   -150484.05   -148958.46 
   70800    590.94005    56.753678      2204118          147  0.007193656   -150483.14   -149084.53 
   70900    604.57728   -26.149705      2204118          147  0.007193656   -150562.73   -149131.84 
   71000    592.79666   -249.70139      2204118          147  0.007193656   -150573.79   -149170.78 
   71100    593.33593    131.15865      2204118          147  0.007193656   -150580.91   -149176.63 
   71200    649.61373    66.663435      2204118          147  0.007193656   -150676.73   -149139.24 
   71300    601.68248    55.110898      2204118          147  0.007193656   -150502.21   -149078.17 
   71400    604.03032    -161.1021      2204118          147  0.007193656   -150461.69   -149032.09 
   71500      630.623    116.02033      2204118          147  0.007193656   -150571.17   -149078.63 
   71600    593.38108    154.08561      2204118          147  0.007193656   -150587.02   -149182.63 
   71700    594.88074    35.490509      2204118          147  0.007193656   -150609.36   -149201.41 
   71800    591.36949   -12.410703      2204118          147  0.007193656    -150578.4   -149178.77 
   71900    599.60664   -5.9941216      2204118          147  0.007193656   -150503.62   -149084.49 
   72000    614.93434    -138.7462      2204118          147  0.007193656   -150495.48   -149040.07 
   72100    622.64528     153.9635      2204118          147  0.007193656   -150543.71   -149070.06 
   72200    610.85552    98.144537      2204118          147  0.007193656   -150571.43   -149125.68 
   72300    595.34115     -12.2517      2204118          147  0.007193656   -150571.76   -149162.73 
   72400    602.43303   -39.603526      2204118          147  0.007193656   -150593.61   -149167.79 
   72500    603.96176     75.60505      2204118          147  0.007193656   -150561.87   -149132.43 
   72600    608.15426   -11.931335      2204118          147  0.007193656   -150438.96    -148999.6 
   72700    606.32922   -8.3718646      2204118          147  0.007193656   -150434.24    -148999.2 
   72800    594.41161    79.402244      2204118          147  0.007193656   -150485.65   -149078.82 
   72900    615.53478    13.553591      2204118          147  0.007193656   -150595.41   -149138.59 
   73000    599.47949    117.84493      2204118          147  0.007193656   -150586.63   -149167.81 
   73100    579.19397   -65.090481      2204118          147  0.007193656   -150527.89   -149157.07 
   73200    617.07748   -133.82905      2204118          147  0.007193656   -150531.81   -149071.33 
   73300    622.75149   -83.706378      2204118          147  0.007193656   -150468.45   -148994.54 
   73400     623.7216   -11.922469      2204118          147  0.007193656   -150509.63   -149033.43 
   73500    614.09559    158.30676      2204118          147  0.007193656   -150535.28   -149081.86 
   73600    578.92596    155.11139      2204118          147  0.007193656    -150513.5   -149143.32 
   73700    568.71668   -49.506699      2204118          147  0.007193656   -150526.57   -149180.56 
   73800    606.30675   -13.890957      2204118          147  0.007193656   -150618.23   -149183.24 
   73900    589.26736    330.65203      2204118          147  0.007193656    -150491.1   -149096.44 
   74000    604.57763    72.766405      2204118          147  0.007193656   -150469.82   -149038.93 
   74100    610.36493   -121.39721      2204118          147  0.007193656   -150503.39   -149058.81 
   74200    584.35807    64.164403      2204118          147  0.007193656   -150518.18   -149135.14 
   74300    594.04877   -51.645938      2204118          147  0.007193656   -150578.13   -149172.16 
   74400     614.0841   -142.47518      2204118          147  0.007193656   -150605.91   -149152.52 
   74500    595.98014   -53.879846      2204118          147  0.007193656   -150549.67   -149139.13 
   74600    589.56167   -82.808472      2204118          147  0.007193656   -150522.75    -149127.4 
   74700    613.07523    28.990487      2204118          147  0.007193656   -150528.74   -149077.74 
   74800    626.13593    60.364951      2204118          147  0.007193656   -150525.68   -149043.76 
   74900    576.32263   -131.18324      2204118          147  0.007193656   -150476.77   -149112.75 
   75000    604.82827   -36.747855      2204118          147  0.007193656   -150615.51   -149184.03 
[...]
  381700    594.37616   -24.654511      2204118          147  0.007193656   -150522.52   -149115.78 
  381800    632.11302    12.140605      2204118          147  0.007193656   -150562.67   -149066.61 
  381900    582.32437    4.2978281      2204118          147  0.007193656   -150494.92    -149116.7 
  382000    558.17833    57.373378      2204118          147  0.007193656   -150521.63   -149200.56 
  382100     591.4869   -158.06779      2204118          147  0.007193656   -150624.94   -149225.03 
  382200    593.34469   -127.82197      2204118          147  0.007193656   -150613.53   -149209.22 
  382300    584.96361    22.886863      2204118          147  0.007193656   -150487.59   -149103.12 
  382400    627.46389    97.325463      2204118          147  0.007193656   -150547.12   -149062.06 
  382500    589.10983    8.1005957      2204118          147  0.007193656   -150496.06   -149101.78 
  382600    607.35806    -69.91758      2204118          147  0.007193656    -150586.3   -149148.83 
  382700    585.22971    22.330889      2204118          147  0.007193656   -150557.78   -149172.68 
  382800    611.34952    252.62491      2204118          147  0.007193656   -150617.62    -149170.7 
  382900    578.87135    81.121714      2204118          147  0.007193656   -150551.44   -149181.38 
  383000    584.37189    -74.94602      2204118          147  0.007193656   -150592.73   -149209.66 
  383100    575.74996    52.573315      2204118          147  0.007193656   -150624.22   -149261.56 
  383200    559.99201    11.459521      2204118          147  0.007193656   -150580.23   -149254.86 
  383300    570.73589    142.14136      2204118          147  0.007193656   -150534.06   -149183.26 
  383400    611.52826    -5.295027      2204118          147  0.007193656   -150564.26   -149116.91 
  383500    612.67094    64.546425      2204118          147  0.007193656   -150585.68   -149135.64 
  383600    595.10012    37.880513      2204118          147  0.007193656   -150581.22   -149172.76 
  383700    595.99525    139.97056      2204118          147  0.007193656    -150607.7   -149197.12 
  383800    593.03727   -75.060141      2204118          147  0.007193656   -150588.97   -149185.39 
  383900    619.91636   -35.287922      2204118          147  0.007193656   -150616.35   -149149.15 
  384000    593.57556    6.8250869      2204118          147  0.007193656   -150537.92   -149133.07 
  384100    600.50815   -38.702806      2204118          147  0.007193656   -150569.06    -149147.8 
  384200    595.63068    101.71037      2204118          147  0.007193656   -150645.39   -149235.67 
  384300    569.62478   -64.066943      2204118          147  0.007193656   -150612.28   -149264.11 
  384400    589.15619    172.63859      2204118          147  0.007193656   -150601.58   -149207.18 
  384500    620.33376    81.039734      2204118          147  0.007193656   -150604.07   -149135.89 
  384600    622.82569   -86.448527      2204118          147  0.007193656   -150612.67   -149138.59 
  384700    572.24353   -116.91982      2204118          147  0.007193656   -150527.43   -149173.06 
  384800    598.38221   -41.006459      2204118          147  0.007193656   -150592.89   -149176.66 
  384900    598.97846    -84.37459      2204118          147  0.007193656   -150589.67   -149172.03 
  385000    621.49597   -20.432657      2204118          147  0.007193656   -150612.47   -149141.53 
  385100    597.59604   -74.592847      2204118          147  0.007193656   -150533.93   -149119.56 
  385200    600.55015   -61.681723      2204118          147  0.007193656   -150575.07   -149153.71 
  385300    596.29338   -10.113102      2204118          147  0.007193656   -150641.85   -149230.56 
  385400    604.18157   -31.549836      2204118          147  0.007193656   -150691.81   -149261.85 
  385500    602.92304   -134.98745      2204118          147  0.007193656   -150644.12   -149217.15 
  385600    630.27779    29.653839      2204118          147  0.007193656   -150589.32   -149097.61 
  385700    608.31381   -38.865615      2204118          147  0.007193656   -150551.84   -149112.11 
  385800    616.32782   -18.121833      2204118          147  0.007193656   -150635.76   -149177.06 
  385900    581.55686    187.80482      2204118          147  0.007193656   -150625.28   -149248.87 
  386000    610.39302   -78.977201      2204118          147  0.007193656   -150682.99   -149238.33 
  386100    591.57277   -174.62643      2204118          147  0.007193656   -150596.76   -149196.65 
  386200    587.78601      0.77901      2204118          147  0.007193656   -150550.23   -149159.08 
  386300    609.81562    66.574448      2204118          147  0.007193656   -150574.39    -149131.1 
  386400    598.93172   -3.9837898      2204118          147  0.007193656   -150563.61   -149146.08 
  386500    589.32228    31.636852      2204118          147  0.007193656   -150557.35   -149162.57 
  386600     595.4061    -50.34036      2204118          147  0.007193656   -150600.03   -149190.85 
  386700     592.6933   -88.456386      2204118          147  0.007193656   -150622.53   -149219.77 
  386800    594.63067    108.90146      2204118          147  0.007193656   -150601.39   -149194.04 
  386900    606.99196    94.739583      2204118          147  0.007193656   -150556.04   -149119.43 
  387000    618.19661   -262.57626      2204118          147  0.007193656   -150551.84   -149088.72 
  387100    623.68117   -8.5479562      2204118          147  0.007193656   -150625.04   -149148.93 
  387200    575.69177   -86.189206      2204118          147  0.007193656   -150567.31   -149204.78 
  387300    568.85053     33.60639      2204118          147  0.007193656   -150551.63   -149205.29 
  387400    606.38297   -155.83729      2204118          147  0.007193656   -150615.89   -149180.73 
  387500    651.60348   -130.25336      2204118          147  0.007193656   -150632.19      -149090 
  387600    620.65515     53.01383      2204118          147  0.007193656   -150511.27   -149042.32 
  387700    611.08161    216.26939      2204118          147  0.007193656    -150568.5   -149122.21 
  387800    617.47422    -131.1297      2204118          147  0.007193656   -150644.64   -149183.22 
  387900    573.90806   -64.766955      2204118          147  0.007193656   -150565.64   -149207.33 
  388000    585.39902    98.831354      2204118          147  0.007193656   -150577.51   -149192.01 
  388100    593.15136   -45.022146      2204118          147  0.007193656   -150540.74   -149136.89 
  388200    631.26635   -114.35083      2204118          147  0.007193656   -150541.16    -149047.1 
  388300    621.02741   -104.27837      2204118          147  0.007193656   -150536.15   -149066.32 
  388400    573.47284    55.423697      2204118          147  0.007193656   -150500.92   -149143.64 
  388500    613.82736    151.01954      2204118          147  0.007193656   -150611.22   -149158.44 
  388600    614.16601    69.099692      2204118          147  0.007193656   -150632.03   -149178.45 
  388700    570.17022     -21.8835      2204118          147  0.007193656   -150564.94   -149215.48 
  388800    593.25872   -127.01567      2204118          147  0.007193656   -150666.56   -149262.46 
  388900    575.25462   -103.42582      2204118          147  0.007193656   -150644.27   -149282.77 
  389000    597.19203    73.249527      2204118          147  0.007193656    -150590.3   -149176.89 
  389100    603.33168    84.079603      2204118          147  0.007193656   -150562.99   -149135.05 
  389200     591.0374   -158.04654      2204118          147  0.007193656   -150527.67   -149128.83 
  389300    609.28669   -150.16955      2204118          147  0.007193656   -150579.18   -149137.14 
  389400    563.24486    43.214475      2204118          147  0.007193656   -150553.86   -149220.79 
  389500    569.48959    132.97945      2204118          147  0.007193656   -150621.05   -149273.21 
  389600    583.23483   -106.09073      2204118          147  0.007193656   -150612.38      -149232 
  389700    603.55296   -155.51255      2204118          147  0.007193656   -150567.06   -149138.59 
  389800    623.80722   -44.468203      2204118          147  0.007193656   -150584.18   -149107.77 
  389900    634.05932    246.05988      2204118          147  0.007193656   -150628.96    -149128.3 
  390000    608.00715   -54.735892      2204118          147  0.007193656    -150636.9   -149197.89 
  390100    589.01563    23.794187      2204118          147  0.007193656   -150618.53   -149224.47 
  390200    596.01902    41.859959      2204118          147  0.007193656   -150604.52   -149193.88 
  390300     603.6121    150.94854      2204118          147  0.007193656   -150494.11    -149065.5 
  390400    622.36127   -22.284429      2204118          147  0.007193656   -150540.85   -149067.87 
  390500    593.05593   -171.82382      2204118          147  0.007193656   -150539.95   -149136.32 
  390600    591.68714   -19.990631      2204118          147  0.007193656   -150575.25   -149174.87 
  390700    581.84715    221.71579      2204118          147  0.007193656   -150585.98   -149208.89 
  390800    574.99574   -67.252911      2204118          147  0.007193656   -150632.45   -149271.57 
  390900    557.02851   -169.75601      2204118          147  0.007193656   -150656.02   -149337.66 
  391000    611.12347    14.179326      2204118          147  0.007193656   -150714.86   -149268.48 
  391100    631.69042    185.57134      2204118          147  0.007193656    -150672.9   -149177.84 
  391200    585.90304   -67.642758      2204118          147  0.007193656   -150549.23   -149162.54 
  391300    559.74825   -74.029606      2204118          147  0.007193656   -150470.23   -149145.43 
  391400    635.15067   -222.74531      2204118          147  0.007193656   -150590.76   -149087.51 
  391500    630.69183    28.610909      2204118          147  0.007193656   -150543.04   -149050.35 
  391600    598.28606     247.0396      2204118          147  0.007193656   -150583.11   -149167.11 
  391700    593.06012   -124.84996      2204118          147  0.007193656   -150624.93   -149221.29 
  391800    585.04444   -67.742506      2204118          147  0.007193656   -150582.19   -149197.53 
  391900    581.25889    29.106944      2204118          147  0.007193656   -150511.34   -149135.64 
  392000    628.43979    0.7830644      2204118          147  0.007193656   -150598.79   -149111.42 
  392100    603.65838    39.066541      2204118          147  0.007193656   -150610.46   -149181.74 
  392200    576.13661   -90.808958      2204118          147  0.007193656   -150633.64   -149270.06 
  392300    580.03393   -33.137332      2204118          147  0.007193656   -150618.36   -149245.56 
  392400    603.16489    246.45425      2204118          147  0.007193656   -150619.46   -149191.91 
  392500    581.59206    38.805188      2204118          147  0.007193656   -150527.98   -149151.49 
  392600    605.80546   -136.09164      2204118          147  0.007193656   -150528.68   -149094.89 
  392700    647.23957   -68.913241      2204118          147  0.007193656   -150530.11   -148998.25 
  392800    624.45589    109.80511      2204118          147  0.007193656   -150465.43   -148987.49 
  392900    610.57582   -9.7999512      2204118          147  0.007193656   -150545.98   -149100.89 
  393000    599.92838   -78.230306      2204118          147  0.007193656   -150594.92   -149175.03 
  393100    577.03941   -37.777962      2204118          147  0.007193656    -150574.8   -149209.08 
  393200    593.21834    176.77401      2204118          147  0.007193656   -150607.48   -149203.47 
  393300    629.45529    56.503069      2204118          147  0.007193656   -150684.69   -149194.92 
  393400    609.50926   -102.56193      2204118          147  0.007193656   -150642.14   -149199.58 
  393500    596.56657   -153.08328      2204118          147  0.007193656    -150598.8   -149186.86 
  393600    606.50058    91.163806      2204118          147  0.007193656   -150577.78   -149142.34 
  393700    625.54723    215.25895      2204118          147  0.007193656   -150596.39   -149115.87 
  393800    593.28679   -103.50532      2204118          147  0.007193656    -150565.5   -149161.33 
  393900    574.48892   -55.601934      2204118          147  0.007193656   -150606.78   -149247.11 
  394000    593.19789   -157.00433      2204118          147  0.007193656   -150657.85    -149253.9 
  394100    608.52069    117.08762      2204118          147  0.007193656   -150644.36   -149204.14 
  394200    616.36284   -41.343257      2204118          147  0.007193656   -150606.08    -149147.3 
  394300    654.56952     83.93778      2204118          147  0.007193656   -150559.26   -149010.05 
  394400    638.68217    -104.3662      2204118          147  0.007193656   -150520.57   -149008.96 
  394500    627.99519   -51.979195      2204118          147  0.007193656   -150580.15   -149093.84 
  394600    603.37411    129.29231      2204118          147  0.007193656   -150600.89   -149172.85 
  394700    597.47695    105.31851      2204118          147  0.007193656   -150623.28    -149209.2 
  394800    586.14232   -151.33423      2204118          147  0.007193656   -150596.92   -149209.66 
  394900    591.90095   -94.877292      2204118          147  0.007193656   -150541.24   -149140.35 
  395000    626.40158    28.015725      2204118          147  0.007193656   -150557.44    -149074.9 
  395100    596.05119    54.878234      2204118          147  0.007193656   -150524.05   -149113.34 
  395200    630.57847   -105.45273      2204118          147  0.007193656    -150663.8   -149171.37 
  395300    598.17504   -66.822912      2204118          147  0.007193656   -150588.84    -149173.1 
  395400    608.18156   -24.629923      2204118          147  0.007193656   -150585.48   -149146.06 
  395500    626.51389    3.9163357      2204118          147  0.007193656   -150593.76   -149110.95 
  395600    633.94342   -88.324537      2204118          147  0.007193656   -150637.05   -149136.66 
  395700    566.90193   -54.411347      2204118          147  0.007193656    -150568.8   -149227.08 
  395800    613.84887    150.11103      2204118          147  0.007193656   -150668.06   -149215.22 
  395900     609.5412   -36.571848      2204118          147  0.007193656   -150609.59   -149166.95 
  396000     595.4234    68.375186      2204118          147  0.007193656   -150472.89   -149063.66 
  396100    604.51764   -66.215307      2204118          147  0.007193656    -150496.6   -149065.85 
  396200    631.25413    38.519076      2204118          147  0.007193656   -150607.05   -149113.02 
  396300    601.44032    56.279258      2204118          147  0.007193656   -150589.15   -149165.69 
  396400    609.32234    9.6588571      2204118          147  0.007193656   -150629.06   -149186.94 
  396500    587.75514    -205.9532      2204118          147  0.007193656   -150591.16   -149200.09 
  396600    621.23359   -5.3696393      2204118          147  0.007193656   -150631.94   -149161.62 
  396700    603.46145    115.64815      2204118          147  0.007193656   -150475.05    -149046.8 
  396800    619.44523    99.834097      2204118          147  0.007193656   -150532.09   -149066.01 
  396900    622.26814   -150.60811      2204118          147  0.007193656   -150617.26    -149144.5 
  397000    597.97038    -22.33292      2204118          147  0.007193656   -150593.25      -149178 
  397100    578.53477   -135.40351      2204118          147  0.007193656   -150556.15   -149186.89 
  397200    578.58167   -9.1642719      2204118          147  0.007193656   -150574.78   -149205.41 
  397300    589.27715   -3.1404506      2204118          147  0.007193656   -150611.33   -149216.65 
  397400    616.07478   -57.467196      2204118          147  0.007193656   -150665.75   -149207.65 
  397500    625.38839    136.70677      2204118          147  0.007193656   -150640.08   -149159.93 
  397600    593.23021    51.555348      2204118          147  0.007193656   -150536.01   -149131.97 
  397700    591.05821   -35.081725      2204118          147  0.007193656   -150588.54   -149189.65 
  397800    578.56492   -109.71391      2204118          147  0.007193656   -150620.78   -149251.46 
  397900    589.66298   -73.892378      2204118          147  0.007193656   -150634.76   -149239.16 
  398000    592.30223    11.252344      2204118          147  0.007193656   -150574.64    -149172.8 
  398100    616.00787   -6.0918123      2204118          147  0.007193656   -150517.81   -149059.86 
  398200    630.58556   -20.271576      2204118          147  0.007193656   -150579.36   -149086.92 
  398300    582.20133   -68.434897      2204118          147  0.007193656   -150533.43    -149155.5 
  398400    602.64256    111.17768      2204118          147  0.007193656   -150646.58   -149220.26 
  398500    607.64626   -3.9315644      2204118          147  0.007193656   -150658.37   -149220.22 
  398600    596.51065   -24.861806      2204118          147  0.007193656   -150606.03   -149194.23 
  398700     612.5065    93.249408      2204118          147  0.007193656   -150531.75   -149082.09 
  398800    602.53513    147.85639      2204118          147  0.007193656   -150494.98   -149068.92 
  398900    604.51573   -31.621008      2204118          147  0.007193656   -150575.39   -149144.64 
  399000    576.15219   -131.27962      2204118          147  0.007193656   -150548.63   -149185.01 
  399100    593.05595   -80.897344      2204118          147  0.007193656   -150578.44   -149174.81 
  399200    593.82422    58.911461      2204118          147  0.007193656   -150602.06   -149196.62 
  399300    553.52387    92.922978      2204118          147  0.007193656   -150598.01   -149287.95 
  399400     581.5512    166.02374      2204118          147  0.007193656      -150698    -149321.6 
  399500     606.6971    -145.9479      2204118          147  0.007193656   -150691.47   -149255.56 
  399600    608.83104   -63.622464      2204118          147  0.007193656   -150652.11   -149211.15 
  399700    567.54374    28.625954      2204118          147  0.007193656   -150540.74    -149197.5 
  399800    592.70137    77.381218      2204118          147  0.007193656   -150593.51   -149190.73 
  399900    643.07895   -185.16295      2204118          147  0.007193656   -150694.06   -149172.05 
  400000     599.6444   -123.75445      2204118          147  0.007193656    -150561.1   -149141.88 
  400057    597.74824   -27.826932      2204118          147  0.007193656   -150522.08   -149107.35 
Loop time of 4583.09 on 16 procs for 400000 steps with 795 atoms

Performance: 1.885 ns/day, 12.731 hours/ns, 87.277 timesteps/s
100.0% CPU use with 16 MPI tasks x no OpenMP threads

MPI task timing breakdown:
Section |  min time  |  avg time  |  max time  |%varavg| %total
---------------------------------------------------------------
Pair    | 0.16903    | 1132.5     | 3750.5     |4106.7 | 24.71
Neigh   | 0.016611   | 2.1321     | 4.4149     | 145.0 |  0.05
Comm    | 0.30083    | 653.4      | 2586.2     |3662.8 | 14.26
Output  | 0.27572    | 0.28186    | 0.32655    |   2.2 |  0.01
Modify  | 814.34     | 2794.2     | 4582       |3400.8 | 60.97
Other   |            | 0.5526     |            |       |  0.01

Nlocal:        49.6875 ave         210 max           0 min
Histogram: 12 0 0 0 0 0 0 0 0 4
Nghost:        159.938 ave         430 max           0 min
Histogram: 8 0 0 0 0 4 0 0 0 4
Neighs:        3058.75 ave       12949 max           0 min
Histogram: 12 0 0 0 0 0 0 0 1 3

Total # of neighbors = 48940
Ave neighs/atom = 61.559748
Neighbor list builds = 8661
Dangerous builds = 0

write_data graphene_single_layer_ReaxFF_795_C_temp_600K.data
System init for write_data ...
Total wall time: 1:16:26
