
# System definition
read_data graphene_single_layer_x-45_y-45_795_C.data
Reading data file ...
  orthogonal box = (-51.000000 -51.000000 -51.000000) to (96.000000 96.000000 51.000000)
  2 by 4 by 2 MPI processor grid
  reading atoms ...
  795 atoms
  read_data CPU = 0.023 seconds

pair_style reax/c NULL
pair_coeff * * ffield.reax.cho C
Reading potential file ffield.reax.cho with DATE: 2011-02-18
fix qeq_reax all qeq/reax 1 0.0 10.0 1.0e-6 reax/c


# Minimization
timestep 0.25
min_style cg
thermo 100
thermo_style custom step temp press vol lx density pe etotal
dump 2 all custom 1000 graphene_single_layer_ReaxFF_795_C_temp_400K.lammpstrj id type x y z
minimize 1.0e-6 1.0e-6 100 1000

CITE-CITE-CITE-CITE-CITE-CITE-CITE-CITE-CITE-CITE-CITE-CITE-CITE

Your simulation uses code contributions which should be cited:

- pair reaxff command:

@Article{Aktulga12,
 author = {H. M. Aktulga, J. C. Fogarty, S. A. Pandit, A. Y. Grama},
 title = {Parallel reactive molecular dynamics: Numerical methods and algorithmic techniques},
 journal = {Parallel Computing},
 year =    2012,
 volume =  38,
 pages =   {245--259}
}

- fix qeq/reaxff command:

@Article{Aktulga12,
 author = {H. M. Aktulga, J. C. Fogarty, S. A. Pandit, A. Y. Grama},
 title = {Parallel reactive molecular dynamics: Numerical methods and algorithmic techniques},
 journal = {Parallel Computing},
 year =    2012,
 volume =  38,
 pages =   {245--259}
}

CITE-CITE-CITE-CITE-CITE-CITE-CITE-CITE-CITE-CITE-CITE-CITE-CITE

WARNING: Using 'neigh_modify every 1 delay 0 check yes' setting during minimization (../min.cpp:188)
Neighbor list info ...
  update every 1 steps, delay 0 steps, check yes
  max neighbors/atom: 10000, page size: 100000
  master list distance cutoff = 10.4
  ghost atom cutoff = 10.4
  binsize = 5.2, bins = 29 29 20
  2 neighbor lists, perpetual/occasional/extra = 2 0 0
  (1) pair reax/c, perpetual
      attributes: half, newton off, ghost
      pair build: half/bin/newtoff/ghost
      stencil: full/ghost/bin/3d
      bin: standard
  (2) fix qeq/reax, perpetual, copy from (1)
      attributes: half, newton off, ghost
      pair build: copy
      stencil: none
      bin: none
Per MPI rank memory allocation (min/avg/max) = 7.965 | 10.90 | 14.56 Mbytes
Step Temp Press Volume Lx Density PotEng TotEng 
       0            0    4589.6155      2204118          147  0.007193656   -142445.78   -142445.78 
      57            0    1294.9092      2204118          147  0.007193656   -150031.46   -150031.46 
Loop time of 3.33846 on 16 procs for 57 steps with 795 atoms

99.9% CPU use with 16 MPI tasks x no OpenMP threads

Minimization stats:
  Stopping criterion = energy tolerance
  Energy initial, next-to-last, final = 
     -142445.777810412  -150031.434465826  -150031.460524184
  Force two-norm initial, final = 2416.1570 1787.6736
  Force max component initial, final = 272.51119 337.29483
  Final line search alpha, max atom move = 0.00017977701 0.060637855
  Iterations, force evaluations = 57 237

MPI task timing breakdown:
Section |  min time  |  avg time  |  max time  |%varavg| %total
---------------------------------------------------------------
Pair    | 0.00014919 | 0.69897    | 2.3039     | 102.0 | 20.94
Neigh   | 2.2264e-05 | 0.0015108  | 0.0031386  |   3.8 |  0.05
Comm    | 0.00027062 | 0.40051    | 1.5807     |  91.2 | 12.00
Output  | 0          | 0          | 0          |   0.0 |  0.00
Modify  | 1.0178     | 1.0203     | 1.0226     |   0.2 | 30.56
Other   |            | 1.217      |            |       | 36.46

Nlocal:        49.6875 ave         209 max           0 min
Histogram: 12 0 0 0 0 0 0 0 0 4
Nghost:        162.812 ave         432 max           0 min
Histogram: 8 0 0 0 0 4 0 0 0 4
Neighs:        3113.44 ave       13116 max           0 min
Histogram: 12 0 0 0 0 0 0 0 0 4

Total # of neighbors = 49815
Ave neighs/atom = 62.660377
Neighbor list builds = 6
Dangerous builds = 0

fix 1 all nvt temp 400.0 400.0 $(100.0*dt)
fix 1 all nvt temp 400.0 400.0 25
run 400000
Per MPI rank memory allocation (min/avg/max) = 6.841 | 9.777 | 13.44 Mbytes
Step Temp Press Volume Lx Density PotEng TotEng 
      57            0    1294.9092      2204118          147  0.007193656   -150031.46   -150031.46 
     100    121.14473     1524.753      2204118          147  0.007193656   -150304.19   -150017.46 
     200    267.92476   -713.32423      2204118          147  0.007193656   -150501.48   -149867.37 
     300    303.31223   -787.33058      2204118          147  0.007193656   -150417.16   -149699.29 
     400    394.86567   -817.15899      2204118          147  0.007193656   -150423.49   -149488.94 
     500    464.13417    855.82542      2204118          147  0.007193656    -150552.3    -149453.8 
     600    390.58627    501.87123      2204118          147  0.007193656   -150433.73    -149509.3 
     700     430.4836   -583.65008      2204118          147  0.007193656   -150605.98   -149587.13 
     800    344.40124   -771.56303      2204118          147  0.007193656   -150446.61   -149631.49 
     900    508.15411   -263.07183      2204118          147  0.007193656   -150717.44   -149514.76 
    1000    409.42272    1017.9707      2204118          147  0.007193656   -150662.23   -149693.22 
    1100    430.77181    180.09191      2204118          147  0.007193656   -150844.18   -149824.64 
    1200    319.37796   -536.21131      2204118          147  0.007193656    -150657.8   -149901.91 
    1300    403.38426   -220.37838      2204118          147  0.007193656   -150703.97   -149749.26 
    1400     454.6707     349.8065      2204118          147  0.007193656    -150762.7   -149686.61 
    1500    400.41084    737.03469      2204118          147  0.007193656   -150788.59   -149840.91 
    1600     352.0497   -293.59172      2204118          147  0.007193656   -150811.17   -149977.95 
    1700    357.78048   -293.49228      2204118          147  0.007193656   -150789.48    -149942.7 
    1800    426.03735    19.989897      2204118          147  0.007193656   -150812.62   -149804.29 
    1900    391.57483    428.40063      2204118          147  0.007193656    -150657.5   -149730.73 
    2000    435.18809   -399.47948      2204118          147  0.007193656   -150775.35   -149745.36 
    2100    411.49453   -289.63661      2204118          147  0.007193656   -150834.38   -149860.47 
    2200    390.88711    43.124577      2204118          147  0.007193656   -150893.09   -149967.96 
    2300    359.41434    828.62583      2204118          147  0.007193656   -150882.84   -150032.19 
    2400    365.17384   -33.521634      2204118          147  0.007193656   -150822.78    -149958.5 
    2500    393.80278   -231.25166      2204118          147  0.007193656   -150775.15   -149843.12 
    2600    473.92776   -296.49448      2204118          147  0.007193656   -150911.14   -149789.47 
    2700     414.5698    392.76821      2204118          147  0.007193656   -150867.36   -149886.17 
    2800    395.91385   -95.913469      2204118          147  0.007193656   -150905.27   -149968.23 
    2900    372.08669   -396.13354      2204118          147  0.007193656   -150859.66   -149979.02 
    3000     404.5895   -205.34162      2204118          147  0.007193656    -150851.5   -149893.94 
    3100    410.74451    307.92378      2204118          147  0.007193656   -150815.46   -149843.33 
    3200    431.73086     231.7813      2204118          147  0.007193656   -150884.38   -149862.58 
    3300     426.9819   -363.66049      2204118          147  0.007193656   -150967.58   -149957.01 
    3400     372.4027   -121.87162      2204118          147  0.007193656   -150889.55   -150008.16 
    3500    363.97615    598.65475      2204118          147  0.007193656   -150839.94   -149978.49 
    3600     426.0254     -237.834      2204118          147  0.007193656   -150912.01   -149903.71 
    3700    420.70903   -293.18212      2204118          147  0.007193656   -150872.64   -149876.92 
    3800    402.61283   0.72652264      2204118          147  0.007193656   -150875.37   -149922.48 
    3900    394.53585    429.97548      2204118          147  0.007193656   -150922.05   -149988.28 
    4000    403.85926   -51.590206      2204118          147  0.007193656   -150962.86   -150007.02 
    4100    390.23139   -335.00969      2204118          147  0.007193656   -150898.02   -149974.44 
    4200    398.33676   -92.587078      2204118          147  0.007193656   -150851.11   -149908.34 
    4300    389.10934    151.61919      2204118          147  0.007193656   -150810.11   -149889.18 
    4400    399.53899   -52.042673      2204118          147  0.007193656   -150879.28   -149933.67 
    4500    403.40328    -126.6532      2204118          147  0.007193656   -150947.16    -149992.4 
    4600    401.44247    212.51379      2204118          147  0.007193656   -150943.29   -149993.17 
    4700    388.59932    281.76231      2204118          147  0.007193656   -150872.66   -149952.94 
    4800    397.10554   -54.185226      2204118          147  0.007193656   -150849.32   -149909.47 
    4900    449.17975   -112.80689      2204118          147  0.007193656   -150986.87   -149923.77 
    5000    436.41282     15.11775      2204118          147  0.007193656   -150991.29   -149958.41 
    5100     415.2848    144.31581      2204118          147  0.007193656   -150960.71   -149977.83 
    5200    383.98075   -148.61214      2204118          147  0.007193656   -150901.06   -149992.26 
    5300    386.80263   -169.90768      2204118          147  0.007193656   -150859.18   -149943.71 
    5400    402.47938    21.738254      2204118          147  0.007193656   -150839.42   -149886.85 
    5500    409.19184    5.9528494      2204118          147  0.007193656   -150887.86    -149919.4 
    5600    389.76683    34.907144      2204118          147  0.007193656   -150908.81   -149986.32 
    5700     404.1576    83.254055      2204118          147  0.007193656   -150971.18   -150014.64 
    5800    381.36968    29.071432      2204118          147  0.007193656   -150904.36   -150001.74 
    5900    388.20162    69.795849      2204118          147  0.007193656   -150851.23   -149932.45 
    6000    407.80001   -65.332585      2204118          147  0.007193656   -150890.22   -149925.05 
    6100     401.6385    177.46449      2204118          147  0.007193656   -150912.48    -149961.9 
    6200    384.43123   -29.172006      2204118          147  0.007193656   -150919.08   -150009.22 
    6300    410.86371   -46.798702      2204118          147  0.007193656   -150982.46   -150010.04 
    6400    367.59917   -79.661828      2204118          147  0.007193656   -150861.85   -149991.82 
    6500    392.93434   -143.45103      2204118          147  0.007193656   -150850.79   -149920.81 
    6600    407.78187   -55.826687      2204118          147  0.007193656   -150874.58   -149909.46 
    6700    408.11478   -24.835016      2204118          147  0.007193656   -150920.07   -149954.16 
    6800     404.9029    115.49981      2204118          147  0.007193656   -150961.79   -150003.48 
    6900    388.26225   -23.120516      2204118          147  0.007193656   -150923.93   -150005.01 
    7000    390.18524    287.77001      2204118          147  0.007193656   -150884.13   -149960.65 
    7100    414.18342    74.983894      2204118          147  0.007193656   -150895.25   -149914.98 
    7200    434.36732    39.680238      2204118          147  0.007193656   -150957.88   -149929.84 
    7300     388.1256   -21.681229      2204118          147  0.007193656   -150887.57   -149968.97 
    7400    386.09838   -133.42196      2204118          147  0.007193656    -150915.4    -150001.6 
    7500    386.05073   -19.305536      2204118          147  0.007193656   -150908.74   -149995.05 
    7600    376.31966   -67.022492      2204118          147  0.007193656   -150850.68   -149960.02 
    7700    407.07619    13.346346      2204118          147  0.007193656   -150893.52   -149930.07 
    7800    415.78188    54.577412      2204118          147  0.007193656    -150923.8   -149939.75 
    7900    390.69767   -41.445777      2204118          147  0.007193656   -150908.15   -149983.46 
    8000    399.35144    18.089922      2204118          147  0.007193656   -150965.04   -150019.87 
    8100    392.11601    166.32533      2204118          147  0.007193656   -150937.47   -150009.42 
    8200    405.55429    -29.61952      2204118          147  0.007193656   -150904.52   -149944.67 
    8300    410.91919    18.501533      2204118          147  0.007193656    -150888.5   -149915.95 
    8400    392.63177    54.042677      2204118          147  0.007193656   -150881.62   -149952.35 
    8500    390.68457   -39.845484      2204118          147  0.007193656      -150927   -150002.34 
    8600    389.94236   -145.97321      2204118          147  0.007193656    -150955.8    -150032.9 
    8700     396.0198   -24.399892      2204118          147  0.007193656   -150939.19   -150001.91 
    8800    387.79361    -92.29628      2204118          147  0.007193656    -150866.1   -149948.28 
    8900    405.53606   -42.803793      2204118          147  0.007193656   -150896.11    -149936.3 
    9000    392.85424   -125.82124      2204118          147  0.007193656    -150897.4    -149967.6 
    9100    419.07393    103.54621      2204118          147  0.007193656   -151006.18   -150014.33 
    9200    413.73804    221.41428      2204118          147  0.007193656   -150997.08   -150017.86 
    9300    409.70328    40.075711      2204118          147  0.007193656   -150965.23   -149995.56 
    9400    413.57551    84.630134      2204118          147  0.007193656    -150949.2   -149970.37 
    9500    413.97697    -10.11954      2204118          147  0.007193656   -150937.79      -149958 
    9600    403.75123    -44.46021      2204118          147  0.007193656   -150924.62   -149969.03 
    9700    399.12593    23.296778      2204118          147  0.007193656   -150946.72   -150002.09 
    9800     378.2948    40.007982      2204118          147  0.007193656   -150941.35   -150046.02 
    9900    405.71293   -141.49815      2204118          147  0.007193656   -150982.89   -150022.67 
   10000    393.85657    -44.65003      2204118          147  0.007193656   -150916.49   -149984.33 
   10100    405.83211   -58.742553      2204118          147  0.007193656    -150934.8   -149974.29 
   10200    400.23039   -74.349445      2204118          147  0.007193656   -150940.97   -149993.72 
   10300    395.66171   -196.23335      2204118          147  0.007193656   -150960.89   -150024.45 
   10400    394.37395    100.17948      2204118          147  0.007193656   -150983.55   -150050.16 
   10500    379.80107    166.29002      2204118          147  0.007193656   -150988.24   -150089.34 
   10600      389.264   -70.921643      2204118          147  0.007193656   -151000.06   -150078.76 
   10700      408.211     81.88169      2204118          147  0.007193656   -150972.58   -150006.44 
   10800    408.10025    78.486468      2204118          147  0.007193656    -150965.9   -150000.02 
   10900    401.79525    62.600104      2204118          147  0.007193656   -150981.71   -150030.76 
   11000    381.04668   -121.15037      2204118          147  0.007193656   -150949.57   -150047.72 
   11100    423.31855   -11.357951      2204118          147  0.007193656   -150978.26   -149976.36 
   11200    402.39783    45.936506      2204118          147  0.007193656   -150904.27   -149951.89 
   11300    396.39084   -12.294184      2204118          147  0.007193656   -150932.67    -149994.5 
   11400    417.63762     97.63751      2204118          147  0.007193656    -151025.9   -150037.45 
   11500    414.49009     188.6435      2204118          147  0.007193656    -151022.7    -150041.7 
   11600    399.32439   -38.531496      2204118          147  0.007193656   -150963.14   -150018.04 
   11700    405.57467    75.278299      2204118          147  0.007193656   -150903.59   -149943.69 
   11800    423.19385    63.942382      2204118          147  0.007193656   -150898.61   -149897.01 
   11900    429.84434   -32.864001      2204118          147  0.007193656   -150952.78   -149935.44 
   12000    408.62631   -79.979558      2204118          147  0.007193656   -150974.38   -150007.26 
   12100    392.28818   -90.016164      2204118          147  0.007193656   -150982.36   -150053.91 
   12200    411.06061    135.97994      2204118          147  0.007193656   -151039.33   -150066.45 
   12300    392.08974   -43.145482      2204118          147  0.007193656   -150999.11   -150071.12 
   12400    395.01842   -26.451683      2204118          147  0.007193656   -150988.91      -150054 
   12500    438.38737   -87.294993      2204118          147  0.007193656   -151037.24   -149999.68 
   12600    404.54305    11.582678      2204118          147  0.007193656   -150956.72   -149999.26 
   12700    397.81818    79.778006      2204118          147  0.007193656   -150993.61   -150052.07 
   12800    394.40736   -26.118988      2204118          147  0.007193656   -151034.79   -150101.32 
   12900      410.001    148.65696      2204118          147  0.007193656   -151048.83   -150078.45 
   13000    410.51057   -22.582781      2204118          147  0.007193656   -151013.32   -150041.74 
   13100    411.26939   -58.301454      2204118          147  0.007193656   -151003.14   -150029.76 
   13200    399.47834   -37.650558      2204118          147  0.007193656   -151025.31   -150079.84 
   13300    389.82763   -53.255828      2204118          147  0.007193656   -151049.19   -150126.56 
   13400    409.17005    -48.18655      2204118          147  0.007193656   -151058.16   -150089.75 
   13500    416.16639    3.1886448      2204118          147  0.007193656   -151043.58   -150058.61 
   13600    392.31099    98.668529      2204118          147  0.007193656   -150986.56   -150058.06 
   13700    427.58897    67.566074      2204118          147  0.007193656   -151100.43   -150088.42 
   13800    383.53489    143.15091      2204118          147  0.007193656   -151069.54    -150161.8 
   13900    403.99044   -74.748077      2204118          147  0.007193656    -151088.3   -150132.15 
   14000    392.43244   -22.345131      2204118          147  0.007193656   -151004.83   -150076.04 
   14100    421.18273    129.15488      2204118          147  0.007193656   -151035.62   -150038.78 
   14200    403.79189      85.0575      2204118          147  0.007193656   -151002.45   -150046.77 
   14300    387.75193   -34.982752      2204118          147  0.007193656   -151023.05   -150105.33 
   14400    387.51149    78.580412      2204118          147  0.007193656   -151045.07   -150127.92 
   14500    402.40585    4.5313275      2204118          147  0.007193656   -151062.42   -150110.02 
   14600    414.76524   -66.580859      2204118          147  0.007193656   -151062.13   -150080.48 
   14700    402.10377    -81.62838      2204118          147  0.007193656   -151009.87   -150058.19 
   14800    415.33984   -67.457272      2204118          147  0.007193656   -151002.56   -150019.55 
   14900    422.63015     33.58225      2204118          147  0.007193656   -150987.36    -149987.1 
   15000    412.62018    103.45302      2204118          147  0.007193656   -151030.29   -150053.71 
   15100    406.99721    53.798001      2204118          147  0.007193656   -151046.76   -150083.49 
   15200    374.23919    63.454797      2204118          147  0.007193656   -150976.79   -150091.05 
   15300    415.68252  -0.62683802      2204118          147  0.007193656   -151064.61   -150080.79 
   15400    397.57267    64.769717      2204118          147  0.007193656   -151046.25   -150105.29 
   15500    377.18896   -39.883402      2204118          147  0.007193656   -151040.37   -150147.65 
   15600    401.11768   -6.6136276      2204118          147  0.007193656   -151081.94   -150132.59 
   15700    394.30544   -41.603711      2204118          147  0.007193656   -150990.41   -150057.18 
   15800     402.1713    23.692465      2204118          147  0.007193656    -150996.4   -150044.55 
   15900    414.25034    53.453201      2204118          147  0.007193656   -151037.47   -150057.03 
   16000    412.04833    28.216765      2204118          147  0.007193656   -151051.07   -150075.85 
   16100    388.51936    37.387665      2204118          147  0.007193656   -151035.35   -150115.82 
   16200    358.94776    57.048289      2204118          147  0.007193656    -151025.9   -150176.36 
   16300     372.6537   -36.755659      2204118          147  0.007193656   -151102.18    -150220.2 
   16400     386.6166    51.660942      2204118          147  0.007193656   -151073.65   -150158.62 
   16500     376.5214    17.115094      2204118          147  0.007193656   -150996.27   -150105.14 
   16600     400.6394    177.76503      2204118          147  0.007193656   -151013.02    -150064.8 
   16700    423.29877    51.894863      2204118          147  0.007193656   -151051.88   -150050.03 
   16800     412.0549   -143.29534      2204118          147  0.007193656   -151014.83    -150039.6 
   16900    416.74036   -114.59804      2204118          147  0.007193656   -150992.21   -150005.88 
   17000    407.94766   -75.382286      2204118          147  0.007193656   -150960.84   -149995.32 
   17100    428.90178    10.249413      2204118          147  0.007193656   -151067.96   -150052.86 
   17200     390.9267   -186.33199      2204118          147  0.007193656   -151023.43    -150098.2 
   17300    405.87786    5.0082015      2204118          147  0.007193656   -151052.27   -150091.65 
   17400    394.90905     104.8774      2204118          147  0.007193656    -151020.9   -150086.25 
   17500    398.21519   -76.479283      2204118          147  0.007193656   -151004.49   -150062.01 
   17600    426.59326   -10.442465      2204118          147  0.007193656   -151020.93   -150011.29 
   17700    407.08054   -62.024024      2204118          147  0.007193656   -151014.54   -150051.07 
   17800    395.48913   -104.16354      2204118          147  0.007193656   -151039.73    -150103.7 
   17900    384.68742   -58.485629      2204118          147  0.007193656   -151005.84   -150095.37 
   18000    392.22177   -7.6590197      2204118          147  0.007193656   -150991.51   -150063.21 
   18100    411.23286    30.415327      2204118          147  0.007193656   -150998.32   -150025.03 
   18200    402.65725    134.64898      2204118          147  0.007193656   -150984.15   -150031.15 
   18300    390.08554   -73.988679      2204118          147  0.007193656   -151030.09   -150106.85 
   18400    388.10313    29.230917      2204118          147  0.007193656   -151044.38   -150125.84 
   18500    382.91579     219.7322      2204118          147  0.007193656   -151034.24   -150127.97 
   18600     393.5052   -181.30318      2204118          147  0.007193656    -150999.1   -150067.77 
   18700    413.11235    31.602928      2204118          147  0.007193656   -150996.09   -150018.35 
   18800    417.62846    88.942549      2204118          147  0.007193656   -151035.42   -150046.99 
   18900    425.26781     57.76937      2204118          147  0.007193656   -151079.86   -150073.35 
   19000    407.18753   -115.73776      2204118          147  0.007193656   -151045.48   -150081.76 
   19100    390.21942    39.001042      2204118          147  0.007193656   -150998.02   -150074.46 
   19200    423.01793    60.354549      2204118          147  0.007193656   -151044.45   -150043.26 
   19300    409.81478   -79.484457      2204118          147  0.007193656      -150928   -149958.07 
   19400    415.83081   -193.50184      2204118          147  0.007193656   -150974.97    -149990.8 
   19500    412.46795    158.66289      2204118          147  0.007193656   -151022.47   -150046.26 
   19600    399.61527    150.92562      2204118          147  0.007193656   -151022.48   -150076.69 
   19700    388.51791   -30.134117      2204118          147  0.007193656   -151020.09   -150100.56 
   19800     408.3766     4.805909      2204118          147  0.007193656   -151051.24   -150084.71 
   19900    417.54139    173.55806      2204118          147  0.007193656   -151012.71   -150024.49 
   20000    408.70719   -4.6699395      2204118          147  0.007193656   -150955.86   -149988.55 
   20100    403.61399   -223.20712      2204118          147  0.007193656   -150971.95    -150016.7 
   20200    400.74453   -166.25692      2204118          147  0.007193656   -151030.81   -150082.34 
   20300    383.74629    100.77633      2204118          147  0.007193656   -151009.04    -150100.8 
   20400    405.91449   -78.793203      2204118          147  0.007193656   -151048.65   -150087.95 
   20500    396.59167   -99.692601      2204118          147  0.007193656   -150982.29   -150043.65 
   20600    422.97491  -0.17052788      2204118          147  0.007193656   -150979.14   -149978.06 
   20700    408.06868    15.456996      2204118          147  0.007193656   -150973.98   -150008.18 
   20800    402.49215     44.19682      2204118          147  0.007193656   -151011.41    -150058.8 
   20900    391.97503   -80.314895      2204118          147  0.007193656   -151007.04   -150079.33 
   21000    404.55182    167.78216      2204118          147  0.007193656   -151040.34   -150082.86 
   21100    409.85517    7.1698954      2204118          147  0.007193656   -151044.05   -150074.02 
   21200    393.78344   -148.39861      2204118          147  0.007193656   -150967.84   -150035.85 
   21300    406.99674    72.347121      2204118          147  0.007193656   -150958.72   -149995.45 
   21400    411.32486   -162.89723      2204118          147  0.007193656   -151002.87   -150029.36 
   21500    405.12236   -74.361112      2204118          147  0.007193656   -151042.89   -150084.07 
   21600    413.49686    6.7004654      2204118          147  0.007193656   -151056.82   -150078.17 
   21700    415.26252    235.56308      2204118          147  0.007193656   -151049.23    -150066.4 
   21800     403.2028     23.30399      2204118          147  0.007193656   -151042.71   -150088.42 
   21900    375.84593   -105.76604      2204118          147  0.007193656   -151039.92   -150150.38 
   22000    379.78984    281.20561      2204118          147  0.007193656   -151048.76   -150149.89 
   22100    393.04817    180.21133      2204118          147  0.007193656      -151027   -150096.75 
   22200    406.68751    -231.6877      2204118          147  0.007193656   -151037.99   -150075.46 
   22300    407.13053   -34.219738      2204118          147  0.007193656   -151033.61   -150070.03 
   22400    394.48381    89.436819      2204118          147  0.007193656   -151007.55    -150073.9 
   22500    419.13826    60.653691      2204118          147  0.007193656   -151071.04   -150079.04 
   22600    396.26066   -153.17949      2204118          147  0.007193656   -151053.76    -150115.9 
   22700    367.63038    58.263936      2204118          147  0.007193656   -151003.48   -150133.39 
   22800    403.62413    170.32124      2204118          147  0.007193656   -151040.15   -150084.87 
   22900    407.82236   -22.835212      2204118          147  0.007193656    -151008.3   -150043.08 
   23000    402.65794    9.1337982      2204118          147  0.007193656   -150991.56   -150038.56 
   23100    420.05029    133.60117      2204118          147  0.007193656   -151054.73   -150060.57 
   23200    381.13852    121.64759      2204118          147  0.007193656   -151059.23   -150157.17 
   23300    369.86544     10.94195      2204118          147  0.007193656   -151020.31   -150144.93 
   23400    379.17872    98.106899      2204118          147  0.007193656   -150985.68   -150088.25 
   23500    393.98437     38.13578      2204118          147  0.007193656   -150986.32   -150053.86 
   23600    402.78165    18.567526      2204118          147  0.007193656   -150991.18   -150037.89 
   23700    407.61281   -36.105312      2204118          147  0.007193656   -151007.37   -150042.64 
   23800    388.58146     108.6574      2204118          147  0.007193656   -151022.44   -150102.76 
   23900    375.68011   -103.95151      2204118          147  0.007193656   -151006.37   -150117.23 
   24000    417.13477   -21.434224      2204118          147  0.007193656   -151062.44   -150075.18 
   24100    406.59246    216.62988      2204118          147  0.007193656   -150998.06   -150035.75 
   24200    413.07805   -10.682208      2204118          147  0.007193656    -150960.2   -149982.55 
   24300    423.99783   -159.58574      2204118          147  0.007193656   -150928.44   -149924.94 
   24400     408.8329    128.14719      2204118          147  0.007193656   -150950.74   -149983.13 
   24500    413.72469    -5.943645      2204118          147  0.007193656   -151019.84   -150040.65 
   24600    404.99639   -122.71209      2204118          147  0.007193656    -151041.8   -150083.27 
   24700    409.03137   -27.314611      2204118          147  0.007193656   -151077.06   -150108.98 
   24800    388.69794   -3.6545692      2204118          147  0.007193656   -151031.36    -150111.4 
   24900    392.01751   -157.57831      2204118          147  0.007193656   -151002.56   -150074.75 
   25000    413.77746   -143.42671      2204118          147  0.007193656   -150994.98   -150015.66 
   25100    404.81131    6.1184961      2204118          147  0.007193656   -150984.68   -150026.59 
   25200    389.34629    118.27326      2204118          147  0.007193656   -151001.21   -150079.72 
   25300    393.19401   -1.5054449      2204118          147  0.007193656    -151031.2    -150100.6 
   25400    405.62903   -68.316361      2204118          147  0.007193656    -151054.2   -150094.17 
   25500    390.23809    210.13294      2204118          147  0.007193656   -151000.37   -150076.77 
   25600    406.21638    -52.14256      2204118          147  0.007193656   -150985.06   -150023.64 
   25700    425.92932    12.604817      2204118          147  0.007193656   -151017.33   -150009.25 
   25800    399.41027    86.341272      2204118          147  0.007193656   -151034.92   -150089.61 
   25900    395.22785   -94.649161      2204118          147  0.007193656   -151051.21    -150115.8 
   26000    382.60173   -99.906828      2204118          147  0.007193656   -151004.94   -150099.42 
   26100    407.00903    32.930023      2204118          147  0.007193656   -151015.61   -150052.31 
   26200     407.4497     47.64929      2204118          147  0.007193656    -150991.9   -150027.56 
   26300    400.57531   -27.331445      2204118          147  0.007193656   -151011.64   -150063.58 
   26400    386.17773    26.920353      2204118          147  0.007193656   -151052.36   -150138.37 
   26500    396.06174   -32.893172      2204118          147  0.007193656   -151077.29   -150139.91 
   26600    393.64799    35.674834      2204118          147  0.007193656   -151035.28   -150103.61 
   26700    387.79997    91.243887      2204118          147  0.007193656      -150969   -150051.17 
   26800    397.01411    8.2096784      2204118          147  0.007193656   -150983.51   -150043.88 
   26900    399.03226    138.66791      2204118          147  0.007193656   -151008.97   -150064.55 
   27000    391.37637    110.20035      2204118          147  0.007193656    -151027.8   -150101.51 
   27100    377.42135     43.78492      2204118          147  0.007193656   -151072.52   -150179.25 
   27200    397.32544   -20.934989      2204118          147  0.007193656   -151155.11   -150214.73 
   27300    395.15687    55.865277      2204118          147  0.007193656   -151092.44    -150157.2 
   27400    409.31847    -124.6571      2204118          147  0.007193656   -151075.08   -150106.32 
   27500    391.36645   -59.558675      2204118          147  0.007193656   -150998.25   -150071.97 
   27600    379.02663   -54.541109      2204118          147  0.007193656   -150954.18   -150057.11 
   27700    398.20062    90.326843      2204118          147  0.007193656   -151012.48   -150070.04 
   27800    415.85158   -36.590397      2204118          147  0.007193656    -151113.5   -150129.27 
   27900    389.20006   -141.43322      2204118          147  0.007193656   -151065.18   -150144.03 
   28000    392.42447    13.585109      2204118          147  0.007193656   -151028.63   -150099.86 
   28100    403.28695    123.73057      2204118          147  0.007193656    -151010.3   -150055.82 
   28200    400.19206    17.063283      2204118          147  0.007193656   -151004.15   -150056.99 
   28300     374.6398   -190.98237      2204118          147  0.007193656   -150973.11   -150086.42 
   28400    400.36664    46.981757      2204118          147  0.007193656   -151065.97    -150118.4 
   28500    378.34232    230.27562      2204118          147  0.007193656   -151042.96   -150147.52 
   28600    384.46222    -211.6586      2204118          147  0.007193656   -151077.34   -150167.41 
   28700     398.9619    23.587797      2204118          147  0.007193656   -151064.24   -150119.99 
   28800    404.67104    23.120382      2204118          147  0.007193656   -151020.08   -150062.32 
   28900    405.29676   -124.24833      2204118          147  0.007193656   -151012.77   -150053.53 
   29000    407.37714    47.147099      2204118          147  0.007193656   -151027.59   -150063.42 
   29100    404.26524    15.175087      2204118          147  0.007193656   -151078.65   -150121.85 
   29200     374.1376    119.01232      2204118          147  0.007193656   -151041.52   -150156.03 
   29300    393.80041   -59.417279      2204118          147  0.007193656   -151068.25   -150136.22 
   29400    406.67553    13.228394      2204118          147  0.007193656      -151061    -150098.5 
   29500    414.04671   -130.67164      2204118          147  0.007193656    -151065.8   -150085.85 
   29600    418.56286    65.478237      2204118          147  0.007193656   -151059.95   -150069.31 
   29700    395.37507   -7.9672637      2204118          147  0.007193656   -150988.81   -150053.05 
   29800    406.09167    -24.15673      2204118          147  0.007193656   -150968.19   -150007.07 
   29900    426.34616   -40.069029      2204118          147  0.007193656   -150989.21   -149980.15 
   30000    410.04007   -38.005931      2204118          147  0.007193656    -151021.3   -150050.83 
   30100    384.73795    58.706094      2204118          147  0.007193656   -150991.67   -150081.09 
   30200    383.44391   -93.358762      2204118          147  0.007193656   -151008.66   -150101.14 
   30300    384.02269    5.6220042      2204118          147  0.007193656   -151019.83   -150110.94 
   30400     375.8379    63.888365      2204118          147  0.007193656   -151005.29   -150115.77 
   30500     397.9377   -64.669028      2204118          147  0.007193656    -151048.4   -150106.57 
   30600    417.83071   -127.49523      2204118          147  0.007193656   -151061.65   -150072.75 
   30700     401.4727   -34.876555      2204118          147  0.007193656   -150990.26   -150040.07 
   30800    389.44237    9.0158771      2204118          147  0.007193656   -150950.77   -150029.06 
   30900    386.56625    57.397379      2204118          147  0.007193656   -150973.34   -150058.43 
   31000    394.44909   -51.838394      2204118          147  0.007193656   -151048.01   -150114.44 
   31100    387.17149    154.45507      2204118          147  0.007193656   -151045.42   -150129.07 
   31200    400.32813    80.949241      2204118          147  0.007193656   -151048.07   -150100.59 
   31300     416.4252   -2.3922258      2204118          147  0.007193656   -151014.66   -150029.08 
   31400    421.68123    52.517349      2204118          147  0.007193656   -151001.58   -150003.56 
   31500    399.98435    94.089225      2204118          147  0.007193656   -150991.96   -150045.29 
   31600    414.58226   -33.890955      2204118          147  0.007193656   -151050.78   -150069.56 
   31700    402.05588   -16.418311      2204118          147  0.007193656    -151050.3   -150098.73 
   31800    400.11974   -46.115828      2204118          147  0.007193656      -151058   -150111.01 
   31900    425.28432   -88.517762      2204118          147  0.007193656    -151060.9   -150054.35 
   32000    426.45592    54.905211      2204118          147  0.007193656   -151004.51   -149995.19 
   32100    391.13406     24.94001      2204118          147  0.007193656   -150961.35   -150035.62 
   32200    409.29913   -100.51728      2204118          147  0.007193656   -151060.23   -150091.52 
   32300    409.90385   -93.613205      2204118          147  0.007193656   -151083.07   -150112.92 
   32400    392.14403    150.56371      2204118          147  0.007193656   -151044.62   -150116.51 
   32500    395.19767    4.0904777      2204118          147  0.007193656   -151006.26   -150070.92 
   32600    420.29109    29.552869      2204118          147  0.007193656   -150993.16   -149998.43 
   32700    430.58885    145.58107      2204118          147  0.007193656   -151024.87   -150005.77 
   32800    407.77979    58.452869      2204118          147  0.007193656   -151026.46   -150061.34 
   32900    391.80452   -74.096992      2204118          147  0.007193656   -151008.86   -150081.55 
   33000    394.75416    103.99076      2204118          147  0.007193656   -151024.44   -150090.15 
   33100    395.80631   -60.261457      2204118          147  0.007193656   -151025.23   -150088.45 
   33200    414.78277   -76.678298      2204118          147  0.007193656   -151065.43   -150083.73 
   33300    393.14278     2.117512      2204118          147  0.007193656   -151011.43   -150080.95 
   33400    405.94752    29.467455      2204118          147  0.007193656    -151030.9   -150070.12 
   33500    388.44495     2.601383      2204118          147  0.007193656   -150974.82   -150055.46 
   33600    410.74542   -60.609462      2204118          147  0.007193656   -150996.14      -150024 
   33700    400.45262    2.5141938      2204118          147  0.007193656   -150954.16   -150006.39 
   33800    401.69249    60.803695      2204118          147  0.007193656   -150995.29   -150044.58 
   33900    408.07907   -191.04758      2204118          147  0.007193656   -151064.09   -150098.27 
   34000    400.50325    142.26089      2204118          147  0.007193656   -151046.63   -150098.73 
   34100    389.86323   -34.090693      2204118          147  0.007193656   -151028.83   -150106.11 
   34200    409.94671   -111.68699      2204118          147  0.007193656   -151017.85    -150047.6 
   34300    423.50491   -111.42123      2204118          147  0.007193656   -151008.17   -150005.83 
   34400    411.75431    166.42075      2204118          147  0.007193656   -150997.22   -150022.69 
   34500    406.00799    86.746783      2204118          147  0.007193656   -151034.56   -150073.64 
   34600    393.77314   -79.196454      2204118          147  0.007193656    -151015.4   -150083.43 
   34700    405.08956      88.1754      2204118          147  0.007193656   -151026.74   -150067.99 
   34800    398.04115    92.217525      2204118          147  0.007193656   -150977.17    -150035.1 
   34900    402.34763   -183.08447      2204118          147  0.007193656   -150956.91   -150004.64 
   35000    421.46253    24.725252      2204118          147  0.007193656   -150949.35   -149951.85 
   35100    418.82836    37.236614      2204118          147  0.007193656   -150972.98   -149981.71 
   35200    406.90083   -90.772041      2204118          147  0.007193656   -151017.91   -150054.88 
   35300       390.29   -106.01415      2204118          147  0.007193656   -150998.77   -150075.05 
   35400    403.12031    47.425132      2204118          147  0.007193656   -151029.09      -150075 
   35500    403.60377    17.000602      2204118          147  0.007193656   -151031.02   -150075.79 
   35600    413.56885   -27.845478      2204118          147  0.007193656   -151060.06   -150081.24 
   35700    410.35592    71.824747      2204118          147  0.007193656   -151046.74   -150075.52 
   35800    377.04562    89.621934      2204118          147  0.007193656   -150979.02   -150086.64 
   35900    387.56675   -96.833982      2204118          147  0.007193656   -151015.22   -150097.94 
   36000    404.33903    62.122852      2204118          147  0.007193656   -151052.17   -150095.19 
   36100    415.37776   -45.902202      2204118          147  0.007193656   -151035.24   -150052.14 
   36200    417.88764   -3.6278192      2204118          147  0.007193656   -151002.23   -150013.19 
   36300    408.17383   -122.70262      2204118          147  0.007193656   -151004.78   -150038.73 
   36400    397.81641    48.961325      2204118          147  0.007193656   -151041.37   -150099.84 
   36500    392.45358     59.35787      2204118          147  0.007193656   -151038.32   -150109.47 
   36600    384.05827   -104.20417      2204118          147  0.007193656   -151003.62   -150094.65 
   36700    408.21321    39.327074      2204118          147  0.007193656   -151027.65   -150061.51 
   36800    409.50223   -18.858416      2204118          147  0.007193656   -150972.51   -150003.32 
   36900     418.9318   -52.635012      2204118          147  0.007193656    -150981.4   -149989.89 
   37000    407.22668    75.596297      2204118          147  0.007193656   -151032.74   -150068.93 
   37100    404.21243    -134.9657      2204118          147  0.007193656   -151060.94   -150104.27 
   37200     396.8547    38.827007      2204118          147  0.007193656   -151041.06   -150101.79 
   37300    387.51288   -8.5373968      2204118          147  0.007193656   -150989.77   -150072.62 
   37400    405.71924   -4.4849839      2204118          147  0.007193656   -150987.03   -150026.79 
   37500    405.89167    55.563686      2204118          147  0.007193656   -150964.15    -150003.5 
   37600    411.40138    10.668314      2204118          147  0.007193656    -151031.2   -150057.51 
   37700    406.46794    68.426328      2204118          147  0.007193656   -151071.58   -150109.57 
   37800    397.62534   -38.637841      2204118          147  0.007193656   -151055.28   -150114.19 
   37900    397.82049   -42.432945      2204118          147  0.007193656   -151035.12   -150093.57 
   38000    426.31626    179.88363      2204118          147  0.007193656   -151031.31   -150022.32 
   38100    401.97522    180.31471      2204118          147  0.007193656   -150978.56   -150027.18 
   38200     403.8373   -57.758997      2204118          147  0.007193656   -151011.36   -150055.57 
   38300    387.59591    57.207838      2204118          147  0.007193656   -150994.33   -150076.98 
   38400    401.30526    89.616408      2204118          147  0.007193656   -151038.07   -150088.27 
   38500    415.72144   -95.679049      2204118          147  0.007193656   -151052.49   -150068.58 
   38600    409.67779   -18.129979      2204118          147  0.007193656   -151011.12   -150041.51 
   38700    399.04283    116.37812      2204118          147  0.007193656   -150916.94    -149972.5 
   38800    426.85768   -121.99096      2204118          147  0.007193656    -151010.3   -150000.03 
   38900    401.29265   -57.407204      2204118          147  0.007193656    -151010.2   -150060.43 
   39000    398.56381    21.610374      2204118          147  0.007193656   -151026.14   -150082.83 
   39100    411.75884   -131.61915      2204118          147  0.007193656   -151080.92   -150106.39 
   39200    390.51166    92.614102      2204118          147  0.007193656   -151030.79   -150106.54 
   39300    429.39914    42.381805      2204118          147  0.007193656   -151058.01   -150041.72 
   39400    408.08486    30.869519      2204118          147  0.007193656   -150976.42   -150010.58 
   39500    410.07562    -51.56585      2204118          147  0.007193656   -151000.39   -150029.84 
   39600    396.35186     65.25738      2204118          147  0.007193656   -151026.37    -150088.3 
   39700     407.9561    71.966497      2204118          147  0.007193656   -151092.92   -150127.39 
   39800    383.39556    31.065177      2204118          147  0.007193656   -151030.21    -150122.8 
   39900    387.49285    -116.0291      2204118          147  0.007193656   -150994.11      -150077 
   40000    437.46857    47.964774      2204118          147  0.007193656   -151064.02   -150028.63 
   40100    400.36965    128.60411      2204118          147  0.007193656   -150989.79   -150042.21 
   40200    388.51698   -28.362715      2204118          147  0.007193656   -150990.47   -150070.94 
   40300    397.42376   -147.58065      2204118          147  0.007193656   -151003.67   -150063.06 
   40400    405.40373    77.849335      2204118          147  0.007193656   -151024.23   -150064.73 
   40500    377.15261    54.038893      2204118          147  0.007193656   -150977.54   -150084.91 
   40600    384.22921   -112.06813      2204118          147  0.007193656   -151018.12   -150108.74 
   40700    384.50031     25.02191      2204118          147  0.007193656   -151013.87   -150103.85 
   40800    415.64864    110.88023      2204118          147  0.007193656   -151041.57   -150057.82 
   40900     399.7552   -126.14093      2204118          147  0.007193656   -150987.89   -150041.76 
   41000    417.64969   -107.73749      2204118          147  0.007193656    -151044.3   -150055.83 
   41100    397.06245    10.529371      2204118          147  0.007193656   -151046.86   -150107.11 
   41200    379.74904   -6.5526849      2204118          147  0.007193656   -151036.16   -150137.38 
   41300    397.29789     -23.3105      2204118          147  0.007193656   -151062.83   -150122.52 
   41400    406.03234   -120.01886      2204118          147  0.007193656    -151000.9   -150039.92 
   41500    413.27819    68.124246      2204118          147  0.007193656    -150995.8   -150017.67 
   41600    396.90456    190.79551      2204118          147  0.007193656   -150999.61   -150060.23 
   41700    379.93098    86.517745      2204118          147  0.007193656   -150999.65   -150100.45 
   41800    404.20126    86.575299      2204118          147  0.007193656   -151051.31   -150094.66 
   41900    399.12182    4.9330971      2204118          147  0.007193656   -151033.94   -150089.32 
   42000    386.56101   -108.90294      2204118          147  0.007193656   -150999.74   -150084.84 
   42100    407.54977    93.485219      2204118          147  0.007193656   -151027.71   -150063.14 
   42200    425.00855   -4.4891702      2204118          147  0.007193656   -151042.96   -150037.06 
   42300    409.27347   -7.3056624      2204118          147  0.007193656   -151013.53   -150044.88 
   42400     428.3562   -93.847739      2204118          147  0.007193656   -151093.11   -150079.29 
   42500    396.10096    53.305001      2204118          147  0.007193656   -151061.73   -150124.26 
   42600     378.9322   -37.853594      2204118          147  0.007193656   -151051.37   -150154.53 
   42700    376.72522    81.502001      2204118          147  0.007193656   -151016.91   -150125.29 
   42800    403.92195    59.481905      2204118          147  0.007193656   -151047.42   -150091.43 
   42900    404.66295   -12.096021      2204118          147  0.007193656   -151040.27   -150082.53 
   43000    398.27155   -107.62812      2204118          147  0.007193656   -151023.25   -150080.63 
   43100     407.1565    18.344819      2204118          147  0.007193656    -151048.4   -150084.76 
   43200    380.51725     100.9794      2204118          147  0.007193656   -150999.29   -150098.69 
   43300     369.7617    64.748782      2204118          147  0.007193656   -150992.54    -150117.4 
   43400    383.07163   -63.315948      2204118          147  0.007193656   -151008.43   -150101.79 
   43500    410.15867     38.88732      2204118          147  0.007193656   -151011.26   -150040.51 
   43600    414.38762    -35.51536      2204118          147  0.007193656   -151002.41   -150021.66 
   43700    398.91815   -87.545035      2204118          147  0.007193656   -151007.75   -150063.61 
   43800    390.41331    35.207273      2204118          147  0.007193656   -151042.69   -150118.67 
   43900    384.15976   -16.222623      2204118          147  0.007193656   -151021.09   -150111.87 
   44000    403.60954    17.722705      2204118          147  0.007193656   -151037.96   -150082.71 
   44100     406.8683    -51.21186      2204118          147  0.007193656    -150992.2   -150029.24 
   44200    405.43391   -57.061615      2204118          147  0.007193656   -150976.05   -150016.48 
   44300    389.47649    58.108561      2204118          147  0.007193656   -150967.96   -150046.16 
   44400    402.77814    -21.30308      2204118          147  0.007193656    -151006.4   -150053.11 
   44500    396.46832   -65.515104      2204118          147  0.007193656   -151005.21   -150066.86 
   44600    377.51676    56.240251      2204118          147  0.007193656   -150982.04   -150088.55 
   44700    412.14538   -81.045293      2204118          147  0.007193656   -151063.03   -150087.58 
   44800    414.14057    46.182939      2204118          147  0.007193656   -151070.14   -150089.97 
   44900    413.98581    82.086483      2204118          147  0.007193656   -151060.85   -150081.04 
   45000    396.08819   -43.398819      2204118          147  0.007193656   -150986.11   -150048.67 
   45100    406.81799    -116.9993      2204118          147  0.007193656   -150986.91   -150024.07 
   45200    395.20735    144.99263      2204118          147  0.007193656   -150951.47   -150016.11 
   45300      399.713    6.3675759      2204118          147  0.007193656   -151012.59   -150066.57 
   45400     401.3381   -188.40787      2204118          147  0.007193656   -151065.98   -150116.11 
   45500    395.74454    21.130916      2204118          147  0.007193656   -151043.77   -150107.14 
   45600    398.18496    172.65599      2204118          147  0.007193656   -151015.55   -150073.14 
   45700    386.66598   -103.52823      2204118          147  0.007193656   -150959.43   -150044.28 
   45800     436.3906    5.1895633      2204118          147  0.007193656   -151018.66   -149985.82 
   45900      427.984   -86.439977      2204118          147  0.007193656   -151020.22   -150007.28 
   46000    407.84982     74.38135      2204118          147  0.007193656    -151036.4   -150071.12 
   46100    402.12646   -125.69853      2204118          147  0.007193656   -151042.58   -150090.84 
   46200    391.25634   -136.92686      2204118          147  0.007193656   -151002.24   -150076.23 
   46300     403.9161      84.6061      2204118          147  0.007193656   -151004.73   -150048.75 
   46400    424.12797    17.336005      2204118          147  0.007193656   -151002.81      -149999 
   46500    430.66582   -180.10425      2204118          147  0.007193656   -150980.33   -149961.05 
   46600    405.20957    23.163142      2204118          147  0.007193656   -150976.13    -150017.1 
   46700     407.8972    127.84155      2204118          147  0.007193656   -151025.21   -150059.81 
   46800      399.692   -113.37539      2204118          147  0.007193656   -151020.87   -150074.89 
   46900    402.27836   -43.614751      2204118          147  0.007193656   -151036.82   -150084.72 
   47000    395.89043    87.892676      2204118          147  0.007193656   -151045.99   -150109.01 
   47100    384.84496    195.74361      2204118          147  0.007193656   -151046.25   -150135.42 
   47200    399.78437    -59.21769      2204118          147  0.007193656   -151093.12   -150146.93 
   47300    381.29966   -179.02083      2204118          147  0.007193656   -150993.92   -150091.47 
   47400    408.20962    89.684672      2204118          147  0.007193656   -151004.68   -150038.54 
   47500    392.38514    161.13798      2204118          147  0.007193656   -150984.96   -150056.28 
   47600     399.5815    -99.29158      2204118          147  0.007193656   -151024.23   -150078.51 
   47700    406.58787    79.407869      2204118          147  0.007193656   -151051.23   -150088.93 
   47800    406.80901   -8.2932905      2204118          147  0.007193656   -151045.62    -150082.8 
   47900    401.26063    121.82218      2204118          147  0.007193656   -150997.27   -150047.58 
   48000    407.28188   -85.543503      2204118          147  0.007193656   -150993.73   -150029.79 
   48100    414.83279   -174.28872      2204118          147  0.007193656   -151019.53   -150037.72 
   48200    395.36943    61.525502      2204118          147  0.007193656   -151031.52   -150095.78 
   48300    387.25104    13.875806      2204118          147  0.007193656   -151039.91   -150123.38 
   48400     379.2876    71.877786      2204118          147  0.007193656   -151009.83   -150112.15 
   48500    414.40756   -79.338786      2204118          147  0.007193656   -151043.29   -150062.49 
   48600    416.23502    24.481494      2204118          147  0.007193656   -150990.01   -150004.88 
   48700    419.90922    34.089322      2204118          147  0.007193656   -151018.84   -150025.01 
   48800    389.01158   -62.645713      2204118          147  0.007193656   -150990.75   -150070.05 
   48900    382.10812   -35.566331      2204118          147  0.007193656   -150999.88   -150095.52 
   49000    396.79731    114.47816      2204118          147  0.007193656   -151047.76   -150108.63 
   49100     394.4944   -10.246956      2204118          147  0.007193656   -151041.19   -150107.51 
   49200    400.88249   -103.90538      2204118          147  0.007193656   -151025.41   -150076.61 
   49300     387.1082   -7.7358749      2204118          147  0.007193656   -150951.92   -150035.73 
   49400    392.52565    8.8112285      2204118          147  0.007193656   -150948.18   -150019.17 
   49500    403.87239   -13.322831      2204118          147  0.007193656   -151021.16   -150065.29 
   49600    380.79425    35.513118      2204118          147  0.007193656   -151028.52   -150127.27 
   49700    387.07647    113.33298      2204118          147  0.007193656   -151033.04   -150116.92 
   49800    405.85479    88.962506      2204118          147  0.007193656   -151036.39   -150075.83 
   49900    404.06944     18.14385      2204118          147  0.007193656   -150998.29   -150041.95 
   50000    408.31541   -47.205238      2204118          147  0.007193656   -151021.47   -150055.08 
   50100    384.69773   -38.708119      2204118          147  0.007193656   -151047.15   -150136.66 
   50200     385.8368   -30.771594      2204118          147  0.007193656   -151057.64   -150144.46 
   50300    412.92981   -76.782504      2204118          147  0.007193656   -151075.08   -150097.78 
   50400    405.73048    21.227892      2204118          147  0.007193656   -151022.39   -150062.12 
   50500    407.79771    55.105164      2204118          147  0.007193656   -151021.43   -150056.27 
   50600    400.34288   -33.420145      2204118          147  0.007193656   -151003.46   -150055.95 
   50700    406.24838    136.93593      2204118          147  0.007193656    -151046.7   -150085.21 
   50800      395.922   -38.367788      2204118          147  0.007193656   -151070.42   -150133.37 
   50900    385.69617    67.699347      2204118          147  0.007193656    -151049.6   -150136.75 
   51000    404.37733    86.216144      2204118          147  0.007193656   -151034.51   -150077.44 
   51100    416.21202   -30.434682      2204118          147  0.007193656   -151046.91   -150061.84 
   51200    407.76809   0.42908647      2204118          147  0.007193656   -151037.08   -150071.99 
   51300    405.41142   -84.868701      2204118          147  0.007193656   -151047.23   -150087.72 
   51400    360.15509   -76.308285      2204118          147  0.007193656   -150998.53   -150146.13 
   51500    384.04919    65.643523      2204118          147  0.007193656   -151067.71   -150158.76 
   51600    384.47471   -51.345023      2204118          147  0.007193656   -151011.11   -150101.15 
   51700    411.55723   -37.164877      2204118          147  0.007193656   -151036.31   -150062.25 
   51800    398.36807   -92.938334      2204118          147  0.007193656   -151006.28   -150063.44 
   51900    399.90202    123.12931      2204118          147  0.007193656   -151014.63   -150068.16 
   52000     393.3421   -115.96311      2204118          147  0.007193656   -151013.17   -150082.23 
   52100    379.57347   -135.61336      2204118          147  0.007193656   -151022.62   -150124.26 
   52200    405.08605    63.112356      2204118          147  0.007193656   -151073.93   -150115.18 
   52300     419.5758    225.66771      2204118          147  0.007193656   -151048.55   -150055.51 
   52400    402.27299     4.294334      2204118          147  0.007193656   -150978.52   -150026.43 
   52500    386.74551   -91.982449      2204118          147  0.007193656   -150947.63   -150032.29 
   52600     400.0171    2.5476447      2204118          147  0.007193656   -150999.85   -150053.11 
   52700    381.42215   -62.188665      2204118          147  0.007193656   -151031.36   -150128.63 
   52800    379.04492    47.706095      2204118          147  0.007193656   -151032.83   -150135.72 
   52900    372.48696    -58.47979      2204118          147  0.007193656   -150987.03   -150105.44 
   53000    416.62088    28.706428      2204118          147  0.007193656   -151047.43   -150061.38 
   53100    416.27816    12.291086      2204118          147  0.007193656   -151024.03    -150038.8 
   53200    409.53966    69.113508      2204118          147  0.007193656   -151014.73   -150045.45 
   53300    391.15319    42.081195      2204118          147  0.007193656   -151006.05   -150080.29 
   53400    389.70746    142.29601      2204118          147  0.007193656   -151047.36   -150125.02 
   53500    383.98732    158.30242      2204118          147  0.007193656   -151078.77   -150169.96 
   53600    394.70947   -107.60746      2204118          147  0.007193656    -151079.1   -150144.91 
   53700    406.73176    54.531207      2204118          147  0.007193656   -151073.02   -150110.38 
   53800     403.3356    95.978532      2204118          147  0.007193656   -151044.89   -150090.29 
   53900    416.79068   -117.79028      2204118          147  0.007193656   -151042.66   -150056.21 
   54000    412.60086    31.269181      2204118          147  0.007193656   -151002.04   -150025.51 
   54100    396.30906    22.168607      2204118          147  0.007193656   -150959.08   -150021.11 
   54200    389.61226   -59.665715      2204118          147  0.007193656   -151009.48   -150087.36 
   54300    398.15064   -13.923782      2204118          147  0.007193656   -151060.49   -150118.16 
   54400     402.0385    26.913723      2204118          147  0.007193656   -151058.63    -150107.1 
   54500    401.06187   -78.145978      2204118          147  0.007193656   -151016.97   -150067.76 
   54600    389.05331   -128.80874      2204118          147  0.007193656   -150913.77   -149992.97 
   54700    417.17574   -24.689947      2204118          147  0.007193656   -150988.46   -150001.11 
   54800    411.05737   -2.5378221      2204118          147  0.007193656   -151026.59   -150053.72 
   54900    407.10939   -47.099914      2204118          147  0.007193656   -151056.28   -150092.75 
   55000    371.72883   -16.431411      2204118          147  0.007193656   -150985.59    -150105.8 
   55100    392.53834    15.406437      2204118          147  0.007193656   -151003.26   -150074.21 
   55200    424.73202   -64.023164      2204118          147  0.007193656   -151017.48   -150012.24 
   55300    403.81542   -1.8894758      2204118          147  0.007193656   -150974.33    -150018.6 
   55400    406.35079    30.446538      2204118          147  0.007193656   -151014.94   -150053.21 
   55500    395.57231   -5.2859133      2204118          147  0.007193656   -151002.84   -150066.62 
   55600    399.33922    88.835291      2204118          147  0.007193656   -151019.35   -150074.21 
   55700    390.94599    141.13091      2204118          147  0.007193656   -151039.96   -150114.68 
   55800     393.5038    20.797748      2204118          147  0.007193656   -151069.34   -150138.01 
   55900    382.61287    61.295051      2204118          147  0.007193656   -151034.61   -150129.06 
   56000    411.08483    86.952686      2204118          147  0.007193656   -151034.09   -150061.15 
   56100    408.50994    125.22376      2204118          147  0.007193656   -151000.52   -150033.67 
   56200    390.26941   -57.894914      2204118          147  0.007193656   -150977.26   -150053.59 
   56300    384.53761    -81.76176      2204118          147  0.007193656   -151010.14   -150100.03 
   56400    378.66566     106.2242      2204118          147  0.007193656   -151031.17   -150134.95 
   56500    357.41597   -79.156728      2204118          147  0.007193656   -151052.16   -150206.24 
   56600    379.90308    45.491932      2204118          147  0.007193656   -151083.74    -150184.6 
   56700    366.75273   -8.0271213      2204118          147  0.007193656   -150999.43   -150131.41 
   56800    392.75969   -105.38872      2204118          147  0.007193656   -151027.66   -150098.09 
   56900    411.10815   -68.431169      2204118          147  0.007193656   -151035.37   -150062.37 
   57000    432.40138    7.2222262      2204118          147  0.007193656   -151061.18   -150037.79 
   57100    410.97495    56.511765      2204118          147  0.007193656   -151038.93   -150066.25 
   57200    392.41688   -125.03442      2204118          147  0.007193656   -151062.42   -150133.66 
   57300    383.76241    160.03321      2204118          147  0.007193656   -151038.06   -150129.78 
   57400    403.69654    70.237286      2204118          147  0.007193656   -151050.37   -150094.91 
   57500    389.81664   -54.866812      2204118          147  0.007193656    -150980.7    -150058.1 
   57600    417.38747   -72.130464      2204118          147  0.007193656   -151023.33   -150035.48 
   57700    402.36653   -13.707153      2204118          147  0.007193656   -150985.09   -150032.78 
   57800    382.96848    -61.13509      2204118          147  0.007193656   -150995.07   -150088.68 
   57900     411.7106   -114.84281      2204118          147  0.007193656   -151083.39   -150108.96 
   58000    395.85214     74.17722      2204118          147  0.007193656   -151052.58   -150115.69 
   58100    406.84072    23.532299      2204118          147  0.007193656   -151057.87   -150094.97 
   58200    408.64118   -37.846165      2204118          147  0.007193656   -151015.48   -150048.32 
   58300    417.61051   -51.506441      2204118          147  0.007193656   -151025.44   -150037.06 
   58400    405.91911   -3.2751955      2204118          147  0.007193656   -151048.44   -150087.73 
   58500    386.18507    -56.19881      2204118          147  0.007193656   -151060.64   -150146.64 
   58600    388.75488   -188.76602      2204118          147  0.007193656   -151066.42   -150146.33 
   58700    406.89846   -81.971217      2204118          147  0.007193656   -151058.83    -150095.8 
   58800    384.55142     32.64546      2204118          147  0.007193656   -150970.33   -150060.19 
   58900    404.17094   -104.08226      2204118          147  0.007193656   -151018.51   -150061.93 
   59000    420.94612    11.367082      2204118          147  0.007193656   -151085.28      -150089 
   59100    408.87031    108.57542      2204118          147  0.007193656   -151071.39   -150103.69 
   59200    398.41002   -44.982933      2204118          147  0.007193656   -151049.19   -150106.25 
   59300    418.10007    82.662368      2204118          147  0.007193656   -151084.45    -150094.9 
   59400    419.00865   -94.532484      2204118          147  0.007193656   -151069.66   -150077.96 
   59500    410.57203   -220.83792      2204118          147  0.007193656   -151044.21   -150072.49 
   59600    386.19766    253.56602      2204118          147  0.007193656    -150999.3   -150085.26 
   59700    404.14494   -78.577999      2204118          147  0.007193656   -151070.81   -150114.29 
   59800    389.75585    33.072076      2204118          147  0.007193656   -151063.48   -150141.02 
   59900    400.45476    118.76925      2204118          147  0.007193656   -151071.21   -150123.43 
   60000    383.97154   -52.554038      2204118          147  0.007193656    -150961.6   -150052.83 
   60100    414.44792   -67.151211      2204118          147  0.007193656   -151017.14   -150036.24 
   60200    390.64142    42.152176      2204118          147  0.007193656   -150989.14   -150064.58 
   60300    394.77197    14.466128      2204118          147  0.007193656   -151027.74   -150093.41 
   60400    379.49622    31.326648      2204118          147  0.007193656    -151048.4   -150150.22 
   60500    372.18506   -30.750343      2204118          147  0.007193656   -151069.75   -150188.88 
   60600    414.98889     58.89948      2204118          147  0.007193656   -151106.74   -150124.56 
   60700    423.24685   -37.267423      2204118          147  0.007193656   -151073.22   -150071.49 
   60800    388.30831   -83.924417      2204118          147  0.007193656    -150989.7   -150070.67 
   60900    371.58634    92.062055      2204118          147  0.007193656   -150943.82   -150064.36 
   61000    407.88244     41.96844      2204118          147  0.007193656   -151035.77   -150070.41 
   61100    392.33663   -224.01123      2204118          147  0.007193656   -151045.47    -150116.9 
   61200    380.61209     227.3887      2204118          147  0.007193656   -151049.62    -150148.8 
   61300    386.73385   -59.263164      2204118          147  0.007193656   -151036.13   -150120.82 
   61400    400.58608   -107.80065      2204118          147  0.007193656   -150995.59    -150047.5 
   61500    416.41543    33.130768      2204118          147  0.007193656   -151026.42   -150040.86 
   61600    410.79552    -78.72593      2204118          147  0.007193656   -151032.73   -150060.47 
   61700    406.25673    45.832713      2204118          147  0.007193656   -151064.61    -150103.1 
   61800    393.74128   -91.204304      2204118          147  0.007193656   -151076.92   -150145.03 
   61900    382.57929     112.0645      2204118          147  0.007193656   -151047.73   -150142.26 
   62000     404.1343   -34.904507      2204118          147  0.007193656   -151000.19    -150043.7 
   62100    422.00702   -22.116928      2204118          147  0.007193656   -151017.21   -150018.42 
   62200     405.7562   -54.905395      2204118          147  0.007193656   -151023.55   -150063.23 
   62300     383.6746   -4.2835876      2204118          147  0.007193656   -151021.14   -150113.07 
   62400    381.55396   -20.162338      2204118          147  0.007193656   -151027.09   -150124.04 
   62500    391.50727    56.745885      2204118          147  0.007193656   -151022.91    -150096.3 
   62600     409.7971   -67.439971      2204118          147  0.007193656   -150995.62   -150025.72 
   62700    407.52163    136.25051      2204118          147  0.007193656   -150979.68   -150015.17 
   62800    411.16847   -17.754069      2204118          147  0.007193656    -151020.2   -150047.06 
   62900    411.71195    83.247764      2204118          147  0.007193656   -151056.24   -150081.82 
   63000    404.63015   -87.507236      2204118          147  0.007193656   -151056.72   -150099.06 
   63100     397.2853   -99.751842      2204118          147  0.007193656   -151024.03   -150083.75 
   63200    417.76991    120.04855      2204118          147  0.007193656   -151027.56    -150038.8 
   63300    425.63838   -31.521848      2204118          147  0.007193656   -150987.24   -149979.85 
   63400     403.9234   -98.324851      2204118          147  0.007193656   -150960.09   -150004.09 
   63500    412.22979    85.120286      2204118          147  0.007193656   -151042.84   -150067.19 
   63600    404.63676   -20.891912      2204118          147  0.007193656   -151052.57   -150094.89 
   63700     394.2067   -53.831399      2204118          147  0.007193656   -151043.68   -150110.68 
   63800    404.34452    5.1714939      2204118          147  0.007193656   -151037.64   -150080.65 
   63900    406.78028    256.56617      2204118          147  0.007193656   -150983.76   -150021.01 
   64000    385.01359   -11.209597      2204118          147  0.007193656   -150953.39   -150042.15 
   64100    388.74387   -272.81135      2204118          147  0.007193656   -150984.27    -150064.2 
   64200    402.82719   -68.999865      2204118          147  0.007193656   -151025.96   -150072.56 
   64300    412.58573    43.846235      2204118          147  0.007193656   -151062.46   -150085.97 
   64400     396.1938   -96.562266      2204118          147  0.007193656   -151042.13   -150104.44 
   64500    397.28907   -28.473481      2204118          147  0.007193656   -151052.49    -150112.2 
   64600    418.91149    89.178157      2204118          147  0.007193656   -151073.92   -150082.45 
   64700    404.59134   -95.713831      2204118          147  0.007193656   -150986.81   -150029.24 
   64800    376.53544   -30.666299      2204118          147  0.007193656   -150919.77    -150028.6 
   64900    391.49107    182.57562      2204118          147  0.007193656   -150993.19   -150066.62 
   65000    394.59465    137.05155      2204118          147  0.007193656   -151064.69   -150130.77 
   65100    386.60702   -171.16132      2204118          147  0.007193656   -151052.54   -150137.53 
   65200    380.31282    14.906761      2204118          147  0.007193656   -150994.89   -150094.78 
   65300    398.01228    206.51478      2204118          147  0.007193656   -151012.14   -150070.14 
   65400    415.14136   -47.485678      2204118          147  0.007193656   -151051.17   -150068.63 
   65500    403.43092   -4.1302228      2204118          147  0.007193656   -151040.55   -150085.72 
   65600     391.8129    58.968363      2204118          147  0.007193656      -151073   -150145.67 
   65700    395.10157    42.269021      2204118          147  0.007193656   -151113.21   -150178.09 
   65800    385.10253    37.338435      2204118          147  0.007193656   -151050.53   -150139.08 
   65900    412.06624   -101.89337      2204118          147  0.007193656   -151085.42   -150110.15 
   66000    395.84051    171.97963      2204118          147  0.007193656    -151016.5   -150079.64 
   66100    399.94265   -72.801368      2204118          147  0.007193656   -151005.36   -150058.79 
   66200    400.39706    -97.59057      2204118          147  0.007193656   -150995.15   -150047.51 
   66300    398.82774   -21.671945      2204118          147  0.007193656   -151024.58   -150080.64 
   66400    365.44064    105.63542      2204118          147  0.007193656   -151000.74   -150135.83 
   66500    388.59713   0.50472673      2204118          147  0.007193656   -151055.32    -150135.6 
   66600     401.2606   -29.315932      2204118          147  0.007193656   -151041.11   -150091.42 
   66700    424.98926    37.337864      2204118          147  0.007193656   -151036.72   -150030.87 
   66800    408.78135    5.9556788      2204118          147  0.007193656   -151002.73   -150035.24 
   66900    406.45868   -52.293497      2204118          147  0.007193656   -151026.93   -150064.94 
   67000    391.56844    63.101371      2204118          147  0.007193656   -151022.52   -150095.77 
   67100    406.40339    66.287639      2204118          147  0.007193656   -151077.87   -150116.01 
   67200    403.13123   -84.635949      2204118          147  0.007193656   -151088.67   -150134.55 
   67300    405.62789    17.816245      2204118          147  0.007193656   -151083.41   -150123.38 
   67400    406.65209   -13.861206      2204118          147  0.007193656   -151033.53   -150071.08 
   67500    403.02872   -68.128275      2204118          147  0.007193656   -150991.69   -150037.82 
   67600    402.48705    8.8285349      2204118          147  0.007193656    -150997.7   -150045.11 
   67700    387.95499     59.57239      2204118          147  0.007193656   -151037.63   -150119.43 
   67800    394.38377 -0.067545433      2204118          147  0.007193656   -151072.56   -150139.15 
   67900    409.03841   -94.036673      2204118          147  0.007193656    -151083.2   -150115.11 
   68000    410.90658    20.639696      2204118          147  0.007193656   -151035.52      -150063 
   68100    403.99591    19.993155      2204118          147  0.007193656    -151014.5   -150058.34 
   68200    396.47744   -225.23717      2204118          147  0.007193656   -151014.12   -150075.75 
   68300    405.85686   -72.090131      2204118          147  0.007193656   -151038.74   -150078.17 
   68400    408.62323    174.69778      2204118          147  0.007193656   -151048.15   -150081.03 
   68500    410.51408   -96.722923      2204118          147  0.007193656   -151059.57   -150087.98 
   68600    413.12365   -55.422628      2204118          147  0.007193656   -151071.77   -150094.01 
   68700    396.06302    130.22143      2204118          147  0.007193656   -151005.69   -150068.31 
   68800    406.12184     124.4189      2204118          147  0.007193656   -150984.16   -150022.96 
   68900    408.56425   -214.24151      2204118          147  0.007193656   -150992.03   -150025.05 
   69000    401.75526   -33.598227      2204118          147  0.007193656   -151035.31   -150084.45 
   69100    400.58206    82.226573      2204118          147  0.007193656   -151055.93   -150107.85 
   69200    382.34823   -78.634766      2204118          147  0.007193656   -151012.77   -150107.84 
   69300    392.36752   -103.09331      2204118          147  0.007193656   -151017.39   -150088.75 
   69400     401.2733    37.303848      2204118          147  0.007193656   -150951.56   -150001.84 
   69500    427.22818    81.928272      2204118          147  0.007193656   -151000.14   -149988.99 
   69600    394.39383    -143.6867      2204118          147  0.007193656   -150967.74   -150034.31 
   69700    401.91592   -54.809476      2204118          147  0.007193656   -151024.49   -150073.25 
   69800    394.49641    168.82533      2204118          147  0.007193656   -151026.74   -150093.06 
   69900    397.82715   -43.325898      2204118          147  0.007193656   -151029.55   -150087.99 
   70000    409.54479   -28.000345      2204118          147  0.007193656   -151041.33   -150072.03 
   70100    403.20197    58.184167      2204118          147  0.007193656   -150998.79    -150044.5 
   70200    404.67353    15.649753      2204118          147  0.007193656   -150999.83   -150042.07 
   70300    405.84605   -56.586778      2204118          147  0.007193656   -151043.37   -150082.83 
   70400    390.49345   -143.56921      2204118          147  0.007193656   -151052.04   -150127.83 
   70500    416.49383    19.820028      2204118          147  0.007193656   -151096.96   -150111.22 
   70600    402.57601   -54.210709      2204118          147  0.007193656      -151019    -150066.2 
   70700    384.12912    30.892863      2204118          147  0.007193656   -150954.49   -150045.34 
   70800    399.75142   -24.403212      2204118          147  0.007193656   -150998.16   -150052.04 
   70900    402.58809    7.7243728      2204118          147  0.007193656   -151031.77   -150078.94 
   71000    403.88638    51.056094      2204118          147  0.007193656   -151060.53   -150104.63 
   71100     395.2636    12.890456      2204118          147  0.007193656   -151058.84   -150123.34 
   71200    390.39374    69.570026      2204118          147  0.007193656   -151029.05   -150105.08 
   71300    405.86738     50.41035      2204118          147  0.007193656   -151005.65   -150045.06 
   71400    391.53407    76.469631      2204118          147  0.007193656   -150948.18   -150021.51 
   71500    392.84153   -201.09261      2204118          147  0.007193656   -150976.43   -150046.67 
   71600    392.43061    17.022645      2204118          147  0.007193656   -151043.22   -150114.43 
   71700    399.27772    45.434042      2204118          147  0.007193656   -151074.25   -150129.25 
   71800    393.74327   -71.909298      2204118          147  0.007193656   -151034.48   -150102.58 
   71900    399.36068     1.648011      2204118          147  0.007193656   -151009.68   -150064.48 
   72000    402.28852    21.242585      2204118          147  0.007193656   -151004.13   -150052.01 
   72100    397.40077    10.251656      2204118          147  0.007193656   -151035.74   -150095.18 
   72200    383.45648   -104.43195      2204118          147  0.007193656   -151060.16   -150152.61 
   72300    385.32747    -202.7221      2204118          147  0.007193656   -151034.53   -150122.55 
   72400    404.43144    113.59386      2204118          147  0.007193656   -151030.33   -150073.14 
   72500    403.60938   -57.420542      2204118          147  0.007193656    -151023.4   -150068.16 
   72600    410.38016   -118.35969      2204118          147  0.007193656   -151027.03   -150055.76 
   72700    420.46761     227.0375      2204118          147  0.007193656   -151041.84   -150046.69 
   72800    402.41183    104.94475      2204118          147  0.007193656      -151016   -150063.58 
   72900    374.63619   -79.626922      2204118          147  0.007193656   -150996.93   -150110.26 
   73000    391.39036      57.6778      2204118          147  0.007193656   -151051.55   -150125.22 
   73100    390.26812   -26.705216      2204118          147  0.007193656   -151034.15   -150110.48 
   73200    393.33081    -30.33332      2204118          147  0.007193656   -150965.22    -150034.3 
   73300      406.304   -29.533804      2204118          147  0.007193656   -150985.61   -150023.98 
   73400    409.78764     113.8806      2204118          147  0.007193656   -151031.91   -150062.04 
   73500    390.95285   -113.98369      2204118          147  0.007193656    -151027.1    -150101.8 
   73600     405.2422    -76.17106      2204118          147  0.007193656   -151065.66   -150106.55 
   73700    399.82419   -138.17192      2204118          147  0.007193656   -151026.52   -150080.23 
   73800    402.05827    126.25381      2204118          147  0.007193656   -151011.16   -150059.59 
   73900    389.57166    124.10419      2204118          147  0.007193656   -150985.35   -150063.32 
   74000    409.28327   -156.97521      2204118          147  0.007193656   -151045.69   -150077.01 
   74100    391.85222    24.021764      2204118          147  0.007193656   -151008.74   -150081.32 
   74200    403.32723    42.172432      2204118          147  0.007193656   -151007.48    -150052.9 
   74300    418.05992   -52.803134      2204118          147  0.007193656   -150993.99   -150004.54 
   74400    420.24713   -13.598185      2204118          147  0.007193656   -150984.73    -149990.1 
   74500    410.35975    64.157609      2204118          147  0.007193656    -151029.4   -150058.18 
   74600    372.60459    19.236375      2204118          147  0.007193656   -150982.53   -150100.67 
   74700    394.97905   -64.729975      2204118          147  0.007193656   -151031.39   -150096.57 
   74800    408.69933    2.9985157      2204118          147  0.007193656    -151031.8   -150064.51 
   74900    420.15836    8.6612545      2204118          147  0.007193656    -151013.4   -150018.98 
   75000    417.54919   -44.275119      2204118          147  0.007193656   -151015.99   -150027.75 
[...]
  381600    402.83436   -33.328759      2204118          147  0.007193656   -151067.57   -150114.16 
  381700    392.98782   -161.55362      2204118          147  0.007193656   -151120.07   -150189.96 
  381800    393.01291   -27.875103      2204118          147  0.007193656   -151121.05   -150190.88 
  381900    397.22793    91.727617      2204118          147  0.007193656   -151088.94   -150148.79 
  382000    395.04985    42.115675      2204118          147  0.007193656   -151061.26   -150126.27 
  382100     401.1354   -18.528175      2204118          147  0.007193656   -151063.18   -150113.78 
  382200    409.08952     21.69645      2204118          147  0.007193656   -151024.84   -150056.62 
  382300    437.58067    185.12484      2204118          147  0.007193656   -151048.06   -150012.41 
  382400    414.58442   -19.242767      2204118          147  0.007193656   -151054.05   -150072.83 
  382500    398.67075   -6.9773848      2204118          147  0.007193656   -151058.61   -150115.05 
  382600    398.17573    178.90444      2204118          147  0.007193656   -151077.34   -150134.95 
  382700    417.69787   -17.810207      2204118          147  0.007193656   -151131.29    -150142.7 
  382800    383.89457   -47.259436      2204118          147  0.007193656   -151081.69   -150173.11 
  382900    382.17261   -9.8248168      2204118          147  0.007193656   -151123.05   -150218.54 
  383000     393.6322    56.847563      2204118          147  0.007193656   -151128.89   -150197.26 
  383100    404.10303    74.960816      2204118          147  0.007193656   -151089.72    -150133.3 
  383200    400.41897     7.203762      2204118          147  0.007193656   -151072.79   -150125.09 
  383300    389.63703    18.921699      2204118          147  0.007193656   -151058.08    -150135.9 
  383400    395.08193    218.14246      2204118          147  0.007193656   -151063.07      -150128 
  383500    407.68309    91.337474      2204118          147  0.007193656   -151056.33   -150091.44 
  383600     385.3471   -119.98504      2204118          147  0.007193656   -150963.36   -150051.33 
  383700    403.40166    124.68361      2204118          147  0.007193656   -151001.86    -150047.1 
  383800    405.84191    76.918901      2204118          147  0.007193656    -151088.9   -150128.37 
  383900    382.81245   -92.906317      2204118          147  0.007193656   -151061.92   -150155.89 
  384000    386.77064    -84.01176      2204118          147  0.007193656   -151050.58   -150135.19 
  384100     395.4112    155.09541      2204118          147  0.007193656   -151036.14    -150100.3 
  384200    404.84874    34.063361      2204118          147  0.007193656   -151062.71   -150104.53 
  384300    382.15502   -277.44186      2204118          147  0.007193656   -151071.92   -150167.45 
  384400    372.75224   -13.865563      2204118          147  0.007193656   -151072.87   -150190.65 
  384500    417.70324    150.79269      2204118          147  0.007193656   -151148.64   -150160.04 
  384600    406.63603   -257.41778      2204118          147  0.007193656   -151055.79   -150093.37 
  384700    421.98048    -67.77842      2204118          147  0.007193656   -151074.39   -150075.67 
  384800    403.03349    82.803104      2204118          147  0.007193656   -151043.86   -150089.97 
  384900    412.25014    18.491833      2204118          147  0.007193656   -151102.51   -150126.81 
  385000    389.87599    -88.52425      2204118          147  0.007193656   -151090.99   -150168.24 
  385100    409.19956    106.86371      2204118          147  0.007193656   -151134.21   -150165.74 
  385200    410.37179    92.482269      2204118          147  0.007193656   -151124.47   -150153.22 
  385300    422.66007    -227.7676      2204118          147  0.007193656   -151069.41   -150069.07 
  385400    403.80517   -18.354317      2204118          147  0.007193656   -151002.21    -150046.5 
  385500     390.5193    76.915223      2204118          147  0.007193656   -151011.29   -150087.02 
  385600    412.93066   -74.912943      2204118          147  0.007193656   -151115.82   -150138.51 
  385700    395.02229   -61.303266      2204118          147  0.007193656   -151091.49   -150156.56 
  385800    393.41092    121.34824      2204118          147  0.007193656   -151077.31    -150146.2 
  385900    409.66241    4.5326805      2204118          147  0.007193656   -151091.33   -150121.76 
  386000     422.0427    80.100433      2204118          147  0.007193656   -151062.79   -150063.91 
  386100    415.47667     158.5656      2204118          147  0.007193656   -151047.67   -150064.34 
  386200    384.33969    55.960648      2204118          147  0.007193656   -151052.63   -150142.99 
  386300    396.04365    51.713839      2204118          147  0.007193656    -151092.9   -150155.56 
  386400    393.21086    43.102076      2204118          147  0.007193656   -151086.42   -150155.79 
  386500    429.94192    7.0627796      2204118          147  0.007193656   -151149.89   -150132.32 
  386600    408.32334    62.340592      2204118          147  0.007193656   -151065.53   -150099.13 
  386700    402.29004   -72.747213      2204118          147  0.007193656   -151017.21   -150065.08 
  386800    396.95222    -109.6591      2204118          147  0.007193656   -151015.94   -150076.44 
  386900    390.05267    84.929263      2204118          147  0.007193656    -151078.4   -150155.24 
  387000    388.67893    32.449031      2204118          147  0.007193656   -151099.85   -150179.94 
  387100    389.06079   -60.261242      2204118          147  0.007193656   -151101.24   -150180.42 
  387200    401.71523   -150.91953      2204118          147  0.007193656    -151085.7   -150134.93 
  387300    418.31187   -23.597527      2204118          147  0.007193656   -151078.24    -150088.2 
  387400    421.14425   -283.42673      2204118          147  0.007193656   -151094.62   -150097.87 
  387500    378.90894   -8.9533942      2204118          147  0.007193656   -151023.89    -150127.1 
  387600    400.74985   0.86579607      2204118          147  0.007193656   -151086.75   -150138.27 
  387700    417.40823   -96.067469      2204118          147  0.007193656   -151123.24   -150135.33 
  387800    412.51167   -100.62677      2204118          147  0.007193656   -151107.95   -150131.64 
  387900    394.12701    101.74836      2204118          147  0.007193656   -151054.42   -150121.61 
  388000    419.76361    83.789028      2204118          147  0.007193656   -151079.27   -150085.79 
  388100    431.49288   -136.34624      2204118          147  0.007193656   -151081.26   -150060.02 
  388200    407.99414     14.85853      2204118          147  0.007193656   -151061.89   -150096.26 
  388300    394.61818   -79.635452      2204118          147  0.007193656   -151086.29   -150152.32 
  388400    393.17452   -14.229404      2204118          147  0.007193656   -151098.54   -150167.98 
  388500    388.21861   -10.867558      2204118          147  0.007193656   -151090.27   -150171.45 
  388600     404.6945   0.14981126      2204118          147  0.007193656   -151076.89   -150119.07 
  388700    424.27344    61.636358      2204118          147  0.007193656   -151079.93   -150075.78 
  388800    429.59298   -29.086548      2204118          147  0.007193656   -151116.34    -150099.6 
  388900    417.75572   -154.06359      2204118          147  0.007193656   -151123.97   -150135.24 
  389000    405.19452    66.219633      2204118          147  0.007193656   -151105.65   -150146.65 
  389100    402.64799   -41.211404      2204118          147  0.007193656   -151107.31   -150154.34 
  389200    404.08371   -111.28722      2204118          147  0.007193656   -151109.84   -150153.47 
  389300    399.26339    128.33319      2204118          147  0.007193656    -151132.7   -150187.73 
  389400    392.69142   -4.6873973      2204118          147  0.007193656   -151145.86   -150216.45 
  389500    401.51469    49.132943      2204118          147  0.007193656   -151132.81   -150182.52 
  389600    402.52191   -133.75683      2204118          147  0.007193656   -151081.47   -150128.79 
  389700    394.04661     37.75633      2204118          147  0.007193656   -151054.25   -150121.63 
  389800    391.77964   0.43849013      2204118          147  0.007193656   -151072.39   -150145.14 
  389900    394.83762   -54.263794      2204118          147  0.007193656   -151092.87   -150158.38 
  390000    398.37149   -38.151753      2204118          147  0.007193656   -151091.59   -150148.73 
  390100    411.00818   -27.506322      2204118          147  0.007193656   -151085.38   -150112.63 
  390200    393.65347   -138.70761      2204118          147  0.007193656   -151056.32   -150124.64 
  390300    395.46273   -55.322131      2204118          147  0.007193656   -151102.99   -150167.02 
  390400    388.79332   -54.498272      2204118          147  0.007193656   -151116.77   -150196.59 
  390500    377.95113     31.63826      2204118          147  0.007193656   -151073.29   -150178.77 
  390600    413.68958    31.822286      2204118          147  0.007193656   -151075.65   -150096.54 
  390700    419.12851    60.595835      2204118          147  0.007193656   -151085.79   -150093.81 
  390800     413.7131    31.578573      2204118          147  0.007193656   -151101.13   -150121.97 
  390900    396.24843   -66.284996      2204118          147  0.007193656   -151103.21   -150165.38 
  391000     397.0445    15.439383      2204118          147  0.007193656   -151127.84   -150188.13 
  391100    401.51399   -16.207048      2204118          147  0.007193656   -151121.18   -150170.89 
  391200    405.45222    179.35113      2204118          147  0.007193656   -151030.53   -150070.92 
  391300    415.83121   -128.07389      2204118          147  0.007193656   -151046.54   -150062.37 
  391400    409.49448   -21.028205      2204118          147  0.007193656   -151089.41   -150120.23 
  391500    410.80623   -142.75751      2204118          147  0.007193656   -151141.11   -150168.83 
  391600    389.15856    52.781539      2204118          147  0.007193656    -151100.6   -150179.55 
  391700    383.32523   -14.829038      2204118          147  0.007193656   -151074.63   -150167.39 
  391800    408.95371   -50.155126      2204118          147  0.007193656   -151070.58   -150102.69 
  391900     410.4778    109.96153      2204118          147  0.007193656   -151043.55   -150072.05 
  392000    424.06412    105.99884      2204118          147  0.007193656   -151108.02   -150104.36 
  392100    413.01252   -86.524497      2204118          147  0.007193656   -151114.96   -150137.46 
  392200    392.71857    -36.04241      2204118          147  0.007193656    -151068.8   -150139.33 
  392300    407.15101   -2.4904594      2204118          147  0.007193656   -151108.35   -150144.72 
  392400    403.22035   -45.861544      2204118          147  0.007193656   -151116.71   -150162.38 
  392500    394.70596    75.187799      2204118          147  0.007193656   -151144.41   -150210.24 
  392600    398.41972    85.098776      2204118          147  0.007193656   -151162.31   -150219.35 
  392700    408.56885    29.287681      2204118          147  0.007193656   -151118.68   -150151.69 
  392800    397.00547   -46.097118      2204118          147  0.007193656   -151058.13   -150118.51 
  392900    415.63697    13.894129      2204118          147  0.007193656   -151101.74   -150118.02 
  393000    399.99434    35.197589      2204118          147  0.007193656   -151081.45   -150134.76 
  393100    390.48489    43.364525      2204118          147  0.007193656   -151088.79   -150164.61 
  393200    385.92369    152.72979      2204118          147  0.007193656   -151107.46   -150194.07 
  393300    382.93383    41.972396      2204118          147  0.007193656   -151095.57   -150189.25 
  393400    406.85487    20.885091      2204118          147  0.007193656   -151098.13   -150135.21 
  393500    421.81163   -16.222409      2204118          147  0.007193656   -151088.74   -150090.41 
  393600    395.71146     54.03299      2204118          147  0.007193656   -151035.41   -150098.86 
  393700    393.14693  -0.45722956      2204118          147  0.007193656   -151068.28   -150137.79 
  393800    390.32081   -58.566053      2204118          147  0.007193656   -151106.72   -150182.93 
  393900    381.62428    113.75719      2204118          147  0.007193656   -151087.68   -150184.46 
  394000    389.89862   -59.310241      2204118          147  0.007193656   -151082.12   -150159.32 
  394100    402.53814    -57.89158      2204118          147  0.007193656   -151075.31    -150122.6 
  394200    409.78255    30.288235      2204118          147  0.007193656   -151056.43   -150086.57 
  394300    401.54095    115.34404      2204118          147  0.007193656   -151039.16   -150088.81 
  394400    386.10973    11.278668      2204118          147  0.007193656   -151093.87   -150180.04 
  394500    403.94842   -171.23045      2204118          147  0.007193656    -151139.7   -150183.65 
  394600    400.63943   -32.898772      2204118          147  0.007193656   -151099.46   -150151.24 
  394700    408.28217    54.967475      2204118          147  0.007193656   -151082.02   -150115.72 
  394800    393.43668    -38.68917      2204118          147  0.007193656   -151037.12   -150105.95 
  394900    377.63965   -146.11114      2204118          147  0.007193656   -151029.36   -150135.57 
  395000    390.32686     189.1847      2204118          147  0.007193656   -151118.08   -150194.27 
  395100    380.73595    66.246982      2204118          147  0.007193656   -151105.55   -150204.44 
  395200    390.67969   -126.47401      2204118          147  0.007193656    -151081.3   -150156.65 
  395300     381.9378    21.957567      2204118          147  0.007193656   -151010.08   -150106.12 
  395400     397.0231    61.445234      2204118          147  0.007193656   -151054.57   -150114.91 
  395500    395.05824    34.570116      2204118          147  0.007193656   -151104.92   -150169.91 
  395600    388.99534   -109.28123      2204118          147  0.007193656   -151110.95   -150190.29 
  395700    408.28368   -40.014632      2204118          147  0.007193656   -151148.24   -150181.93 
  395800    398.63392    155.82911      2204118          147  0.007193656   -151116.24   -150172.77 
  395900    401.96278    -136.1176      2204118          147  0.007193656   -151105.42   -150154.07 
  396000    449.57882   -119.53701      2204118          147  0.007193656   -151173.98   -150109.93 
  396100    425.37942    37.084038      2204118          147  0.007193656   -151112.53   -150105.75 
  396200    408.76784    139.22976      2204118          147  0.007193656   -151131.64   -150164.19 
  396300    380.87743   -86.947197      2204118          147  0.007193656   -151102.66   -150201.21 
  396400    390.85914     59.14043      2204118          147  0.007193656   -151111.86   -150186.79 
  396500    406.08751    76.047862      2204118          147  0.007193656   -151125.33   -150164.22 
  396600    395.16017    57.732219      2204118          147  0.007193656   -151098.68   -150163.43 
  396700    396.16195    7.3723932      2204118          147  0.007193656   -151139.94   -150202.32 
  396800    365.76437    64.547422      2204118          147  0.007193656   -151145.76   -150280.08 
  396900     386.3001   -11.657352      2204118          147  0.007193656   -151167.94   -150253.66 
  397000    414.23775     45.69291      2204118          147  0.007193656   -151183.41   -150203.01 
  397100    396.34903   -136.34633      2204118          147  0.007193656   -151114.06      -150176 
  397200    397.50483      88.2026      2204118          147  0.007193656   -151088.35   -150147.55 
  397300    388.17728      89.1763      2204118          147  0.007193656   -151058.94   -150140.21 
  397400     412.5159    -32.95918      2204118          147  0.007193656   -151123.92    -150147.6 
  397500     401.1143   -72.239927      2204118          147  0.007193656   -151168.76   -150219.42 
  397600    391.26708   -18.345157      2204118          147  0.007193656    -151171.3   -150245.26 
  397700    413.99102   -20.518479      2204118          147  0.007193656   -151175.21    -150195.4 
  397800    416.01855   -111.08791      2204118          147  0.007193656   -151132.55   -150147.94 
  397900    409.77969    57.854585      2204118          147  0.007193656   -151117.33   -150147.48 
  398000    400.97153    108.64498      2204118          147  0.007193656   -151119.48   -150170.47 
  398100    403.85922   -135.09788      2204118          147  0.007193656   -151176.34    -150220.5 
  398200    389.74148   -77.949311      2204118          147  0.007193656   -151184.69   -150262.26 
  398300    390.51641    125.09085      2204118          147  0.007193656   -151151.31   -150227.05 
  398400    402.39057    38.805302      2204118          147  0.007193656   -151106.63   -150154.27 
  398500    381.42883   -84.055489      2204118          147  0.007193656   -151033.13   -150130.38 
  398600    401.80872    -57.33323      2204118          147  0.007193656   -151075.59    -150124.6 
  398700    407.92748    23.330034      2204118          147  0.007193656   -151126.86   -150161.39 
  398800     367.6282   -3.2413687      2204118          147  0.007193656    -151090.4   -150220.31 
  398900    379.58173    134.25686      2204118          147  0.007193656   -151103.94   -150205.56 
  399000    405.33321   -23.992483      2204118          147  0.007193656    -151123.7   -150164.37 
  399100     422.9923    31.336515      2204118          147  0.007193656   -151145.14   -150144.01 
  399200    405.07278    117.31972      2204118          147  0.007193656   -151102.16   -150143.45 
  399300    400.63831   -66.450452      2204118          147  0.007193656   -151104.89   -150156.67 
  399400     408.3098    140.95015      2204118          147  0.007193656   -151127.07    -150160.7 
  399500    410.67781    16.205482      2204118          147  0.007193656   -151133.38    -150161.4 
  399600    389.11894    -6.131754      2204118          147  0.007193656   -151070.88   -150149.93 
  399700    406.03893    14.312343      2204118          147  0.007193656   -151084.69   -150123.69 
  399800     412.3619    9.2855443      2204118          147  0.007193656   -151103.91   -150127.95 
  399900    407.33377   -57.669542      2204118          147  0.007193656   -151118.58   -150154.52 
  400000     375.1194    174.37638      2204118          147  0.007193656   -151092.59   -150204.77 
  400057     398.7385    21.769055      2204118          147  0.007193656   -151149.16   -150205.44 
Loop time of 4630.43 on 16 procs for 400000 steps with 795 atoms

Performance: 1.866 ns/day, 12.862 hours/ns, 86.385 timesteps/s
99.9% CPU use with 16 MPI tasks x no OpenMP threads

MPI task timing breakdown:
Section |  min time  |  avg time  |  max time  |%varavg| %total
---------------------------------------------------------------
Pair    | 0.16948    | 1137.7     | 3783.2     |4120.1 | 24.57
Neigh   | 0.012867   | 1.5826     | 3.2544     | 124.7 |  0.03
Comm    | 0.33289    | 662.07     | 2610.4     |3663.3 | 14.30
Output  | 0.30027    | 0.31495    | 0.40233    |   4.2 |  0.01
Modify  | 827.3      | 2828.1     | 4629.1     |3405.9 | 61.08
Other   |            | 0.654      |            |       |  0.01

Nlocal:        49.6875 ave         210 max           0 min
Histogram: 12 0 0 0 0 0 0 0 0 4
Nghost:        161.062 ave         427 max           0 min
Histogram: 8 0 0 0 0 4 0 0 0 4
Neighs:        3065.06 ave       12934 max           0 min
Histogram: 12 0 0 0 0 0 0 0 0 4

Total # of neighbors = 49041
Ave neighs/atom = 61.686792
Neighbor list builds = 6445
Dangerous builds = 0

write_data graphene_single_layer_ReaxFF_795_C_temp_400K.data
System init for write_data ...
Total wall time: 1:17:13
