
# System definition
read_data graphene_single_layer_x-45_y-45_795_C.data
Reading data file ...
  orthogonal box = (-51.000000 -51.000000 -51.000000) to (96.000000 96.000000 51.000000)
  2 by 4 by 2 MPI processor grid
  reading atoms ...
  795 atoms
  read_data CPU = 0.003 seconds

pair_style reax/c NULL
pair_coeff * * ffield.reax.cho C
Reading potential file ffield.reax.cho with DATE: 2011-02-18
fix qeq_reax all qeq/reax 1 0.0 10.0 1.0e-6 reax/c


# Minimization
timestep 0.25
min_style cg
thermo 100
thermo_style custom step temp press vol lx density pe etotal
dump 2 all custom 1000 graphene_single_layer_ReaxFF_795_C_temp_700K.lammpstrj id type x y z
minimize 1.0e-6 1.0e-6 100 1000

CITE-CITE-CITE-CITE-CITE-CITE-CITE-CITE-CITE-CITE-CITE-CITE-CITE

Your simulation uses code contributions which should be cited:

- pair reaxff command:

@Article{Aktulga12,
 author = {H. M. Aktulga, J. C. Fogarty, S. A. Pandit, A. Y. Grama},
 title = {Parallel reactive molecular dynamics: Numerical methods and algorithmic techniques},
 journal = {Parallel Computing},
 year =    2012,
 volume =  38,
 pages =   {245--259}
}

- fix qeq/reaxff command:

@Article{Aktulga12,
 author = {H. M. Aktulga, J. C. Fogarty, S. A. Pandit, A. Y. Grama},
 title = {Parallel reactive molecular dynamics: Numerical methods and algorithmic techniques},
 journal = {Parallel Computing},
 year =    2012,
 volume =  38,
 pages =   {245--259}
}

CITE-CITE-CITE-CITE-CITE-CITE-CITE-CITE-CITE-CITE-CITE-CITE-CITE

WARNING: Using 'neigh_modify every 1 delay 0 check yes' setting during minimization (../min.cpp:188)
Neighbor list info ...
  update every 1 steps, delay 0 steps, check yes
  max neighbors/atom: 10000, page size: 100000
  master list distance cutoff = 10.4
  ghost atom cutoff = 10.4
  binsize = 5.2, bins = 29 29 20
  2 neighbor lists, perpetual/occasional/extra = 2 0 0
  (1) pair reax/c, perpetual
      attributes: half, newton off, ghost
      pair build: half/bin/newtoff/ghost
      stencil: full/ghost/bin/3d
      bin: standard
  (2) fix qeq/reax, perpetual, copy from (1)
      attributes: half, newton off, ghost
      pair build: copy
      stencil: none
      bin: none
Per MPI rank memory allocation (min/avg/max) = 7.965 | 10.90 | 14.56 Mbytes
Step Temp Press Volume Lx Density PotEng TotEng 
       0            0    4589.6155      2204118          147  0.007193656   -142445.78   -142445.78 
      57            0    1294.9092      2204118          147  0.007193656   -150031.46   -150031.46 
Loop time of 3.36097 on 16 procs for 57 steps with 795 atoms

100.0% CPU use with 16 MPI tasks x no OpenMP threads

Minimization stats:
  Stopping criterion = energy tolerance
  Energy initial, next-to-last, final = 
     -142445.777810412  -150031.434465826  -150031.460524184
  Force two-norm initial, final = 2416.1570 1787.6736
  Force max component initial, final = 272.51119 337.29483
  Final line search alpha, max atom move = 0.00017977701 0.060637855
  Iterations, force evaluations = 57 237

MPI task timing breakdown:
Section |  min time  |  avg time  |  max time  |%varavg| %total
---------------------------------------------------------------
Pair    | 0.00013582 | 0.70396    | 2.3323     | 102.3 | 20.95
Neigh   | 2.5301e-05 | 0.0015379  | 0.0032414  |   3.9 |  0.05
Comm    | 0.00026126 | 0.40561    | 1.5997     |  91.0 | 12.07
Output  | 0          | 0          | 0          |   0.0 |  0.00
Modify  | 1.0116     | 1.0142     | 1.0168     |   0.2 | 30.17
Other   |            | 1.236      |            |       | 36.77

Nlocal:        49.6875 ave         209 max           0 min
Histogram: 12 0 0 0 0 0 0 0 0 4
Nghost:        162.812 ave         432 max           0 min
Histogram: 8 0 0 0 0 4 0 0 0 4
Neighs:        3113.44 ave       13116 max           0 min
Histogram: 12 0 0 0 0 0 0 0 0 4

Total # of neighbors = 49815
Ave neighs/atom = 62.660377
Neighbor list builds = 6
Dangerous builds = 0

fix 1 all nvt temp 700.0 700.0 $(100.0*dt)
fix 1 all nvt temp 700.0 700.0 25
run 400000
Per MPI rank memory allocation (min/avg/max) = 6.841 | 9.777 | 13.44 Mbytes
Step Temp Press Volume Lx Density PotEng TotEng 
      57            0    1294.9092      2204118          147  0.007193656   -150031.46   -150031.46 
     100    121.37388    1524.4109      2204118          147  0.007193656   -150304.18   -150016.92 
     200    285.88994   -715.76579      2204118          147  0.007193656   -150488.21   -149811.57 
     300    339.40882   -841.94638      2204118          147  0.007193656   -150377.64   -149574.34 
     400    414.99143   -858.41714      2204118          147  0.007193656   -150208.56   -149226.37 
     500    618.83431     676.4905      2204118          147  0.007193656   -150287.06   -148822.42 
     600    513.94095    861.60116      2204118          147  0.007193656   -149649.39   -148433.02 
     700    719.94559   -412.45944      2204118          147  0.007193656   -149761.65   -148057.71 
     800     647.2884   -729.83156      2204118          147  0.007193656    -149416.2   -147884.23 
     900    702.91025   -652.91543      2204118          147  0.007193656   -149242.58   -147578.96 
    1000    948.32537   -84.157335      2204118          147  0.007193656   -149885.12   -147640.66 
    1100    655.71181    1219.7177      2204118          147  0.007193656   -149744.47   -148192.56 
    1200    690.27487    518.20382      2204118          147  0.007193656   -149926.31    -148292.6 
    1300    657.02947   -562.06055      2204118          147  0.007193656   -149723.42   -148168.39 
    1400    772.66855   -573.82759      2204118          147  0.007193656   -149815.25   -147986.53 
    1500    777.19023   -268.83779      2204118          147  0.007193656   -149901.87   -148062.45 
    1600    715.71804    538.45558      2204118          147  0.007193656   -150120.23   -148426.29 
    1700    665.51373    617.28174      2204118          147  0.007193656   -150156.82    -148581.7 
    1800    642.49835   -575.66994      2204118          147  0.007193656   -150032.98   -148512.33 
    1900    697.53576   -487.06626      2204118          147  0.007193656   -149918.34   -148267.43 
    2000    732.65291   -392.58852      2204118          147  0.007193656   -149766.09   -148032.08 
    2100    800.15828    179.94149      2204118          147  0.007193656   -149911.06   -148017.27 
    2200    698.48143    553.54935      2204118          147  0.007193656   -150016.85   -148363.71 
    2300    646.51509    150.79025      2204118          147  0.007193656   -150131.72   -148601.58 
    2400    621.95949   -217.44977      2204118          147  0.007193656   -150079.11   -148607.07 
    2500    718.88339   -190.59774      2204118          147  0.007193656   -150102.63   -148401.21 
    2600    737.07227    215.51326      2204118          147  0.007193656   -150053.61   -148309.14 
    2700    715.34699    116.37269      2204118          147  0.007193656   -150146.91   -148453.86 
    2800    623.75727   -287.12559      2204118          147  0.007193656   -150084.27   -148607.98 
    2900    666.22135   -337.23374      2204118          147  0.007193656   -150060.49    -148483.7 
    3000    778.02622   -222.63415      2204118          147  0.007193656   -150108.69   -148267.28 
    3100    755.43791    125.12366      2204118          147  0.007193656    -149988.7   -148200.76 
    3200    768.81021    367.65564      2204118          147  0.007193656   -150122.04   -148302.45 
    3300    677.45521   -130.36621      2204118          147  0.007193656   -150164.28    -148560.9 
    3400    677.06574   -67.983448      2204118          147  0.007193656   -150284.71   -148682.26 
    3500    672.70306   -46.330367      2204118          147  0.007193656   -150166.98   -148574.85 
    3600    685.55686    279.93351      2204118          147  0.007193656   -149990.03   -148367.48 
    3700    782.57053   -37.177125      2204118          147  0.007193656   -150104.79   -148252.63 
    3800    728.24749   -74.193294      2204118          147  0.007193656   -150128.75   -148405.16 
    3900    661.97644   -143.38774      2204118          147  0.007193656   -150159.96   -148593.22 
    4000    680.53146    190.79124      2204118          147  0.007193656   -150243.49   -148632.84 
    4100    703.62741    34.526226      2204118          147  0.007193656   -150215.66   -148550.34 
    4200    691.94539   -307.87694      2204118          147  0.007193656   -150043.61   -148405.94 
    4300    741.46961   -256.61447      2204118          147  0.007193656   -150078.71   -148323.82 
    4400    696.66307    -38.20473      2204118          147  0.007193656   -150033.68   -148384.85 
    4500    697.71188    156.07449      2204118          147  0.007193656   -150195.77   -148544.45 
    4600    677.09087    190.89496      2204118          147  0.007193656   -150242.83   -148640.31 
    4700    664.50169    -127.2962      2204118          147  0.007193656   -150166.01   -148593.29 
    4800    743.64586   -35.549143      2204118          147  0.007193656   -150217.58   -148457.55 
    4900    712.96674    267.11982      2204118          147  0.007193656   -150132.98   -148445.56 
    5000    743.84116    181.69344      2204118          147  0.007193656   -150315.52   -148555.02 
    5100    683.67768   -203.92204      2204118          147  0.007193656   -150284.59   -148666.48 
    5200    686.07916   -416.08766      2204118          147  0.007193656   -150255.82   -148632.04 
    5300    702.45812   -33.094841      2204118          147  0.007193656   -150163.95   -148501.39 
    5400    746.13126    252.24945      2204118          147  0.007193656    -150218.3   -148452.39 
    5500    737.40644    297.44683      2204118          147  0.007193656   -150246.93   -148501.67 
    5600    691.56316    86.650399      2204118          147  0.007193656   -150261.96    -148625.2 
    5700    649.04742   -61.778565      2204118          147  0.007193656   -150184.15   -148648.01 
    5800    684.05875    63.145992      2204118          147  0.007193656   -150190.56   -148571.55 
    5900    727.20038    120.36639      2204118          147  0.007193656    -150225.5   -148504.38 
    6000    700.67708    244.13991      2204118          147  0.007193656   -150169.74   -148511.41 
    6100    689.49948    -205.8602      2204118          147  0.007193656   -150201.55   -148569.66 
    6200    690.17777   -137.46825      2204118          147  0.007193656   -150281.03   -148647.55 
    6300    687.24989    67.511859      2204118          147  0.007193656   -150263.73   -148637.17 
    6400    668.76782   -37.979478      2204118          147  0.007193656   -150141.37   -148558.55 
    6500    721.39608    2.4204559      2204118          147  0.007193656    -150188.9   -148481.53 
    6600    704.02385   -176.74801      2204118          147  0.007193656   -150156.75   -148490.49 
    6700    689.01079    4.8260035      2204118          147  0.007193656   -150186.82   -148556.09 
    6800    670.46967    66.890293      2204118          147  0.007193656    -150266.9   -148680.06 
    6900     690.5366     140.7558      2204118          147  0.007193656   -150307.34      -148673 
    7000    680.28711    68.461465      2204118          147  0.007193656   -150195.91   -148585.83 
    7100     703.9613    31.318087      2204118          147  0.007193656   -150186.58   -148520.47 
    7200    707.36453    70.453378      2204118          147  0.007193656   -150191.77   -148517.61 
    7300    747.26891    88.026345      2204118          147  0.007193656   -150345.17   -148576.56 
    7400     710.2731   -133.50664      2204118          147  0.007193656   -150371.46   -148690.41 
    7500     690.2023    -126.5403      2204118          147  0.007193656   -150314.76   -148681.22 
    7600    710.51858    17.168527      2204118          147  0.007193656   -150279.97   -148598.34 
    7700    697.02267   -223.52449      2204118          147  0.007193656    -150179.5   -148529.82 
    7800    707.07381     88.37377      2204118          147  0.007193656   -150166.56   -148493.08 
    7900    723.71128    37.856481      2204118          147  0.007193656   -150275.96    -148563.1 
    8000    683.99579   -21.053151      2204118          147  0.007193656   -150280.94   -148662.08 
    8100    706.91562    39.734309      2204118          147  0.007193656   -150323.17   -148650.07 
    8200    680.45952    26.597961      2204118          147  0.007193656   -150201.43   -148590.94 
    8300    695.36744   -26.616008      2204118          147  0.007193656   -150153.39   -148507.62 
    8400     693.5925   -45.342395      2204118          147  0.007193656   -150164.38   -148522.81 
    8500    692.01802    88.545102      2204118          147  0.007193656   -150221.53   -148583.68 
    8600    685.85012    -21.12941      2204118          147  0.007193656   -150263.66   -148640.42 
    8700     679.0953    28.394883      2204118          147  0.007193656   -150244.21   -148636.95 
    8800    682.65887   -177.67118      2204118          147  0.007193656   -150218.19   -148602.49 
    8900    693.87574   -144.28423      2204118          147  0.007193656   -150174.75   -148532.51 
    9000    747.18007    -65.67768      2204118          147  0.007193656   -150266.78   -148498.38 
    9100    704.28573    34.934513      2204118          147  0.007193656      -150195   -148528.12 
    9200    681.66123    88.060412      2204118          147  0.007193656   -150182.71   -148569.38 
    9300     722.0844    308.16988      2204118          147  0.007193656   -150312.14   -148603.13 
    9400     664.0099    42.549584      2204118          147  0.007193656    -150205.1   -148633.55 
    9500    693.22178   -153.53059      2204118          147  0.007193656    -150192.7      -148552 
    9600    703.30159   -16.442373      2204118          147  0.007193656   -150128.86   -148464.32 
    9700    691.90362    63.018193      2204118          147  0.007193656   -150141.25   -148503.68 
    9800    716.31861    121.60617      2204118          147  0.007193656   -150255.14   -148559.79 
    9900    668.09691   -118.26059      2204118          147  0.007193656   -150172.23      -148591 
   10000    713.46334   -132.36306      2204118          147  0.007193656   -150239.54   -148550.94 
   10100    687.88049   -197.07308      2204118          147  0.007193656   -150118.43   -148490.38 
   10200    737.59523    237.01172      2204118          147  0.007193656   -150111.87   -148366.16 
   10300    750.84279    9.6095537      2204118          147  0.007193656   -150162.43   -148385.36 
   10400    696.09306   -140.45022      2204118          147  0.007193656   -150178.41   -148530.92 
   10500    704.08621    -73.72415      2204118          147  0.007193656   -150231.19   -148564.79 
   10600    700.12391     48.45266      2204118          147  0.007193656   -150212.51   -148555.48 
   10700    708.89037    242.45127      2204118          147  0.007193656   -150206.62   -148528.84 
   10800    724.49021   -167.58734      2204118          147  0.007193656   -150275.08   -148560.38 
   10900     678.6325   -77.429816      2204118          147  0.007193656   -150251.87   -148645.71 
   11000    678.15168   -123.07232      2204118          147  0.007193656   -150271.75   -148666.72 
   11100      698.607     164.9227      2204118          147  0.007193656   -150210.38   -148556.95 
   11200    712.35073    188.00862      2204118          147  0.007193656   -150195.28   -148509.31 
   11300    706.25868   -113.94125      2204118          147  0.007193656   -150179.71   -148508.16 
   11400    710.59034    -50.95092      2204118          147  0.007193656   -150246.71   -148564.91 
   11500    710.61025   0.70591262      2204118          147  0.007193656   -150283.33   -148601.48 
   11600    689.24038    219.63261      2204118          147  0.007193656   -150309.54   -148678.27 
   11700     687.4043  0.041450505      2204118          147  0.007193656   -150362.98   -148736.05 
   11800    693.15789   -68.529262      2204118          147  0.007193656   -150293.62   -148653.08 
   11900    682.47217    18.234855      2204118          147  0.007193656   -150154.35    -148539.1 
   12000    777.68648    116.52672      2204118          147  0.007193656   -150357.96   -148517.36 
   12100    692.78607    -90.18572      2204118          147  0.007193656   -150203.65   -148563.99 
   12200    710.44412   -84.822817      2204118          147  0.007193656    -150313.1   -148631.64 
   12300    708.25329    134.05632      2204118          147  0.007193656   -150310.73   -148634.46 
   12400    730.59942   -68.898758      2204118          147  0.007193656   -150220.48   -148491.32 
   12500    717.51581    39.975045      2204118          147  0.007193656   -150170.62   -148472.43 
   12600    711.96364   -170.66729      2204118          147  0.007193656    -150241.7   -148556.65 
   12700    698.34312    39.930931      2204118          147  0.007193656   -150254.55   -148601.74 
   12800    693.69553    61.622275      2204118          147  0.007193656   -150241.97   -148600.16 
   12900    719.97327    166.21507      2204118          147  0.007193656   -150247.81    -148543.8 
   13000    759.96673    75.739758      2204118          147  0.007193656    -150211.1   -148412.44 
   13100    736.44875    12.505627      2204118          147  0.007193656   -150103.61   -148360.61 
   13200    736.62798     -135.158      2204118          147  0.007193656   -150210.69   -148467.26 
   13300    739.78586   -162.11275      2204118          147  0.007193656   -150261.94   -148511.04 
   13400    700.65186   -109.87145      2204118          147  0.007193656    -150226.6   -148568.32 
   13500    699.03829   -50.019967      2204118          147  0.007193656   -150282.34   -148627.88 
   13600     721.8502   -16.506607      2204118          147  0.007193656   -150329.02   -148620.58 
   13700    709.24944    212.59942      2204118          147  0.007193656   -150241.83    -148563.2 
   13800    747.12752   -97.668978      2204118          147  0.007193656   -150242.12   -148473.85 
   13900    728.62944   -23.975746      2204118          147  0.007193656   -150176.48   -148451.98 
   14000    691.70676   -17.226702      2204118          147  0.007193656   -150184.68   -148547.58 
   14100    717.38014    96.073159      2204118          147  0.007193656   -150317.09   -148619.22 
   14200     697.0872    17.790947      2204118          147  0.007193656   -150246.09   -148596.25 
   14300    757.56871   -92.515165      2204118          147  0.007193656    -150308.5   -148515.52 
   14400     737.1414    53.192406      2204118          147  0.007193656   -150231.87   -148487.23 
   14500    683.78974   -23.294572      2204118          147  0.007193656   -150143.89   -148525.53 
   14600    666.84515    29.271662      2204118          147  0.007193656   -150169.16   -148590.89 
   14700    696.63078   -74.110459      2204118          147  0.007193656   -150278.27   -148629.51 
   14800    681.99107   -41.878774      2204118          147  0.007193656   -150227.51    -148613.4 
   14900    710.21185    78.150302      2204118          147  0.007193656   -150225.44   -148544.53 
   15000    710.96358    -14.68484      2204118          147  0.007193656    -150139.9   -148457.21 
   15100    713.45088   -69.541132      2204118          147  0.007193656   -150143.87    -148455.3 
   15200    707.17455    131.72906      2204118          147  0.007193656   -150263.23   -148589.51 
   15300    688.30082    113.06168      2204118          147  0.007193656   -150277.09   -148648.04 
   15400    722.69922    102.92441      2204118          147  0.007193656   -150326.66   -148616.21 
   15500    701.50737   -197.48016      2204118          147  0.007193656   -150230.63   -148570.33 
   15600    717.75976   -163.09143      2204118          147  0.007193656   -150195.75   -148496.99 
   15700     741.2189   -160.99008      2204118          147  0.007193656   -150182.84   -148428.55 
   15800    696.26314   -57.737774      2204118          147  0.007193656    -150071.4   -148423.51 
   15900    729.32012    -17.75784      2204118          147  0.007193656   -150261.84   -148535.71 
   16000    692.52281   -137.44937      2204118          147  0.007193656   -150249.52   -148610.49 
   16100    666.47774   -5.9503551      2204118          147  0.007193656   -150212.97   -148635.58 
   16200    726.66013    287.58914      2204118          147  0.007193656    -150342.8   -148622.97 
   16300    711.84658    125.74829      2204118          147  0.007193656   -150280.94   -148596.16 
   16400    694.89432   -132.14282      2204118          147  0.007193656   -150154.07   -148509.42 
   16500    711.93284    3.0932963      2204118          147  0.007193656   -150132.53   -148447.55 
   16600    705.75256   -80.546387      2204118          147  0.007193656   -150162.14   -148491.79 
   16700    718.10876   -32.957409      2204118          147  0.007193656   -150308.05   -148608.46 
   16800    714.77881    172.74161      2204118          147  0.007193656   -150319.26   -148627.55 
   16900    713.35662    13.301449      2204118          147  0.007193656   -150277.74   -148589.39 
   17000    745.72092   -41.077616      2204118          147  0.007193656   -150249.96   -148485.02 
   17100    708.14598   -16.037911      2204118          147  0.007193656   -150128.46   -148452.44 
   17200     680.1053   -62.897036      2204118          147  0.007193656   -150114.28   -148504.63 
   17300    702.09901    62.673378      2204118          147  0.007193656   -150212.93   -148551.23 
   17400     708.2179   -3.2355196      2204118          147  0.007193656   -150247.22   -148571.03 
   17500    676.14836    21.712877      2204118          147  0.007193656   -150199.51   -148599.23 
   17600    713.54463    89.428578      2204118          147  0.007193656   -150271.31   -148582.51 
   17700    696.72039    39.283154      2204118          147  0.007193656   -150179.67    -148530.7 
   17800    734.98922     134.6921      2204118          147  0.007193656    -150186.1   -148446.55 
   17900    690.35362   -134.26697      2204118          147  0.007193656   -150133.52   -148499.62 
   18000    659.54205   -23.343205      2204118          147  0.007193656   -150145.61   -148584.63 
   18100    648.75458   -57.381402      2204118          147  0.007193656   -150126.23   -148590.78 
   18200    702.25475    49.669006      2204118          147  0.007193656   -150222.16   -148560.09 
   18300    709.37719   -2.2340762      2204118          147  0.007193656   -150198.55   -148519.62 
   18400    704.85293   -114.07811      2204118          147  0.007193656   -150095.67   -148427.45 
   18500    743.93108   -125.49971      2204118          147  0.007193656   -150150.16   -148389.45 
   18600    749.40886    46.774668      2204118          147  0.007193656   -150259.64   -148485.97 
   18700    701.15754    91.910223      2204118          147  0.007193656   -150227.89   -148568.41 
   18800     721.0847     157.6476      2204118          147  0.007193656   -150301.06   -148594.42 
   18900    674.96329   -155.08327      2204118          147  0.007193656   -150194.19   -148596.71 
   19000    706.81051   -168.39005      2204118          147  0.007193656   -150166.45    -148493.6 
   19100    726.98772    53.198427      2204118          147  0.007193656   -150159.18   -148438.58 
   19200    696.81721    192.65926      2204118          147  0.007193656   -150136.71   -148487.51 
   19300    719.67832   -48.062487      2204118          147  0.007193656   -150285.46   -148582.15 
   19400    677.18088   -227.97996      2204118          147  0.007193656   -150182.09   -148579.36 
   19500    681.25002    -78.89105      2204118          147  0.007193656   -150151.68   -148539.32 
   19600    749.08692   -46.025661      2204118          147  0.007193656   -150265.02   -148492.11 
   19700    703.33657    160.86665      2204118          147  0.007193656   -150243.24   -148578.61 
   19800    718.69992    32.836713      2204118          147  0.007193656   -150360.88   -148659.89 
   19900    684.79444   -133.63782      2204118          147  0.007193656   -150266.93   -148646.18 
   20000    706.35591   -8.4188049      2204118          147  0.007193656   -150239.44   -148567.66 
   20100    728.78226    66.269018      2204118          147  0.007193656   -150255.32   -148530.46 
   20200    714.94217   -46.383565      2204118          147  0.007193656    -150238.6    -148546.5 
   20300    702.99748   -122.83058      2204118          147  0.007193656    -150249.1   -148585.27 
   20400    675.74648    3.2224298      2204118          147  0.007193656    -150174.7   -148575.37 
   20500    682.96152   -117.99852      2204118          147  0.007193656   -150165.95   -148549.55 
   20600    705.19409    153.16486      2204118          147  0.007193656   -150218.96   -148549.93 
   20700    694.13248    2.5492232      2204118          147  0.007193656   -150258.09   -148615.24 
   20800    676.92998   -197.61747      2204118          147  0.007193656   -150312.32   -148710.18 
   20900     682.7776   -15.893095      2204118          147  0.007193656   -150276.83   -148660.86 
   21000    717.42715    100.28714      2204118          147  0.007193656   -150275.75   -148577.77 
   21100    731.69167    145.78854      2204118          147  0.007193656    -150274.6   -148542.86 
   21200    664.07285   -140.61006      2204118          147  0.007193656   -150130.53   -148558.82 
   21300    699.08131    99.219458      2204118          147  0.007193656    -150234.9   -148580.34 
   21400    683.81945   -22.464494      2204118          147  0.007193656   -150284.46   -148666.02 
   21500    671.06595     112.0759      2204118          147  0.007193656   -150339.31   -148751.06 
   21600    677.65071    -69.62637      2204118          147  0.007193656   -150279.65   -148675.82 
   21700    708.20569     3.509959      2204118          147  0.007193656   -150284.58   -148608.42 
   21800    706.66535    45.440957      2204118          147  0.007193656   -150228.22   -148555.71 
   21900    700.10307    42.659686      2204118          147  0.007193656   -150175.59   -148518.61 
   22000    680.89896   -123.17981      2204118          147  0.007193656   -150145.58   -148534.05 
   22100    680.78796    187.82796      2204118          147  0.007193656   -150242.53   -148631.27 
   22200    675.53994    69.647748      2204118          147  0.007193656   -150292.45    -148693.6 
   22300    692.82556    104.89993      2204118          147  0.007193656   -150271.27   -148631.51 
   22400    731.13175    50.600638      2204118          147  0.007193656   -150286.39   -148555.98 
   22500    711.80935  -0.55934226      2204118          147  0.007193656   -150241.55   -148556.87 
   22600    705.24092   -116.73776      2204118          147  0.007193656   -150229.22   -148560.08 
   22700    737.94322    33.613718      2204118          147  0.007193656   -150261.54      -148515 
   22800    724.79892    99.067365      2204118          147  0.007193656   -150138.49   -148423.06 
   22900    727.55354   -202.45958      2204118          147  0.007193656   -150109.74   -148387.79 
   23000    706.32857   -79.590063      2204118          147  0.007193656   -150194.64   -148522.93 
   23100    691.90606   -215.47842      2204118          147  0.007193656   -150210.22   -148572.64 
   23200    736.30131    116.28928      2204118          147  0.007193656   -150330.69   -148588.04 
   23300    693.82887    90.933542      2204118          147  0.007193656   -150251.18   -148609.05 
   23400    672.80238    4.2264404      2204118          147  0.007193656   -150242.11   -148649.75 
   23500    659.12256   0.36752392      2204118          147  0.007193656   -150203.75   -148643.77 
   23600    693.43564     22.79062      2204118          147  0.007193656   -150184.61   -148543.41 
   23700    732.09359   -4.8195977      2204118          147  0.007193656   -150218.99    -148486.3 
   23800    728.85024   -76.347659      2204118          147  0.007193656   -150245.96   -148520.94 
   23900      688.561   -146.49996      2204118          147  0.007193656   -150272.27    -148642.6 
   24000    684.96539   -159.83134      2204118          147  0.007193656   -150297.55    -148676.4 
   24100    669.09869     17.04171      2204118          147  0.007193656   -150219.42   -148635.82 
   24200    714.94533    -30.46464      2204118          147  0.007193656   -150238.11   -148546.01 
   24300      733.482     23.03457      2204118          147  0.007193656    -150260.4   -148524.42 
   24400    700.72109   -102.85539      2204118          147  0.007193656   -150219.92   -148561.48 
   24500     724.9486    81.946729      2204118          147  0.007193656   -150295.74   -148579.96 
   24600     708.8568    105.13196      2204118          147  0.007193656   -150271.26   -148593.56 
   24700    672.43715   -22.331721      2204118          147  0.007193656   -150204.06   -148612.56 
   24800    687.57435  -0.78847457      2204118          147  0.007193656   -150254.75   -148627.42 
   24900    723.51023   -49.172574      2204118          147  0.007193656   -150291.94   -148579.56 
   25000    743.96169    64.379521      2204118          147  0.007193656   -150267.49   -148506.71 
   25100    720.17418    11.943637      2204118          147  0.007193656   -150210.93   -148506.45 
   25200    698.97786     -6.18441      2204118          147  0.007193656    -150258.6   -148604.28 
   25300    711.42404   -66.742992      2204118          147  0.007193656   -150336.12   -148652.35 
   25400    717.58301    193.03098      2204118          147  0.007193656    -150361.1   -148662.75 
   25500    684.36159    64.287249      2204118          147  0.007193656   -150244.75   -148625.02 
   25600    740.30017   -106.42952      2204118          147  0.007193656   -150243.33   -148491.22 
   25700    741.74559    9.5380091      2204118          147  0.007193656   -150192.06   -148436.52 
   25800    698.92008    130.33287      2204118          147  0.007193656   -150152.99   -148498.81 
   25900    716.30606   -41.841583      2204118          147  0.007193656   -150281.81   -148586.48 
   26000    700.96902   -32.051986      2204118          147  0.007193656   -150287.76   -148628.74 
   26100    679.58986   -145.90285      2204118          147  0.007193656   -150254.81   -148646.39 
   26200    690.93904   -28.712746      2204118          147  0.007193656   -150239.06   -148603.77 
   26300    725.39117   -215.51652      2204118          147  0.007193656   -150206.37   -148489.54 
   26400    746.20626   -60.357817      2204118          147  0.007193656   -150225.99    -148459.9 
   26500    708.21685   -128.18137      2204118          147  0.007193656   -150268.82   -148592.64 
   26600    685.39654    1.4534021      2204118          147  0.007193656   -150273.82   -148651.65 
   26700    689.16596   -41.077186      2204118          147  0.007193656   -150282.37   -148651.28 
   26800    734.07555    80.362827      2204118          147  0.007193656   -150331.85   -148594.46 
   26900    705.89849    89.990897      2204118          147  0.007193656   -150217.68   -148546.98 
   27000    709.24926    47.964013      2204118          147  0.007193656   -150147.21   -148468.58 
   27100    711.60983   -199.66074      2204118          147  0.007193656    -150141.3   -148457.09 
   27200    719.95888    65.933971      2204118          147  0.007193656   -150306.48   -148602.51 
   27300    678.57823    202.65887      2204118          147  0.007193656   -150279.72   -148673.69 
   27400    675.73823   -69.619844      2204118          147  0.007193656   -150269.67   -148670.36 
   27500    685.88442   -256.86554      2204118          147  0.007193656   -150201.97   -148578.64 
   27600    721.94635   -122.39474      2204118          147  0.007193656   -150231.17    -148522.5 
   27700    691.70704    201.73198      2204118          147  0.007193656   -150190.46   -148553.35 
   27800    692.36065    22.728497      2204118          147  0.007193656   -150275.22   -148636.56 
   27900    691.44816   -245.69784      2204118          147  0.007193656   -150316.66   -148680.16 
   28000    707.00445    13.918485      2204118          147  0.007193656   -150291.15   -148617.84 
   28100    717.46589    57.655747      2204118          147  0.007193656   -150253.09   -148555.02 
   28200    706.98748    214.83302      2204118          147  0.007193656   -150246.58   -148573.31 
   28300    703.49371    79.831393      2204118          147  0.007193656   -150332.24   -148667.23 
   28400    652.28979   -158.14518      2204118          147  0.007193656   -150270.01   -148726.19 
   28500    668.27349   -184.24596      2204118          147  0.007193656   -150278.83   -148697.19 
   28600     708.4941    162.78264      2204118          147  0.007193656    -150316.1   -148639.26 
   28700    714.54106    129.69331      2204118          147  0.007193656   -150292.18   -148601.03 
   28800    704.89845   -18.844347      2204118          147  0.007193656   -150250.39   -148582.06 
   28900    695.49691   -201.68293      2204118          147  0.007193656   -150260.64   -148614.56 
   29000      695.718    38.186036      2204118          147  0.007193656   -150353.64   -148707.04 
   29100     685.3779    182.41022      2204118          147  0.007193656   -150364.19   -148742.06 
   29200    671.32442    94.492368      2204118          147  0.007193656   -150249.42   -148660.55 
   29300    729.38434   -13.982392      2204118          147  0.007193656   -150305.61   -148579.33 
   29400    727.32767    37.424838      2204118          147  0.007193656    -150305.8   -148584.39 
   29500    697.54973    184.00026      2204118          147  0.007193656   -150280.85   -148629.92 
   29600    699.65295   -157.16979      2204118          147  0.007193656   -150333.76   -148677.84 
   29700    695.24161   -14.799333      2204118          147  0.007193656   -150389.66   -148744.19 
   29800    639.68901   -43.006745      2204118          147  0.007193656      -150323      -148809 
   29900    670.82749    3.6580821      2204118          147  0.007193656   -150284.73   -148697.04 
   30000    692.69763    66.178764      2204118          147  0.007193656   -150258.28   -148618.83 
   30100    721.72145   -113.48759      2204118          147  0.007193656   -150301.24    -148593.1 
   30200    733.69262   -22.201941      2204118          147  0.007193656   -150302.67    -148566.2 
   30300    704.79044    3.4895693      2204118          147  0.007193656   -150229.35   -148561.28 
   30400    696.39922    123.17424      2204118          147  0.007193656   -150294.55   -148646.34 
   30500    710.87155    66.766533      2204118          147  0.007193656    -150392.2   -148709.74 
   30600    680.37264    114.69632      2204118          147  0.007193656   -150288.95   -148678.67 
   30700    699.38901    59.107267      2204118          147  0.007193656   -150223.92   -148568.63 
   30800    748.24936   -78.710375      2204118          147  0.007193656   -150267.49   -148496.56 
   30900    680.06799    26.208237      2204118          147  0.007193656   -150147.28   -148537.72 
   31000    708.90375   -94.346317      2204118          147  0.007193656   -150270.31    -148592.5 
   31100    703.51418    22.197682      2204118          147  0.007193656   -150291.73   -148626.68 
   31200    695.67783   -23.471848      2204118          147  0.007193656   -150308.29   -148661.79 
   31300    717.78954  0.069633727      2204118          147  0.007193656   -150419.13   -148720.29 
   31400    663.55356   -42.290809      2204118          147  0.007193656   -150296.59   -148726.11 
   31500    665.74477   -30.420142      2204118          147  0.007193656   -150200.11   -148624.45 
   31600    701.66047    32.135326      2204118          147  0.007193656   -150214.39   -148553.73 
   31700    749.21263    67.752697      2204118          147  0.007193656   -150342.01    -148568.8 
   31800    737.15021   -91.716793      2204118          147  0.007193656   -150379.37   -148634.71 
   31900     682.5811   -176.78236      2204118          147  0.007193656   -150295.54   -148680.03 
   32000    697.95624   -103.82349      2204118          147  0.007193656   -150330.97   -148679.08 
   32100    704.29019    62.681904      2204118          147  0.007193656   -150305.43   -148638.55 
   32200    724.61606    142.50859      2204118          147  0.007193656   -150310.85   -148595.85 
   32300    706.96799   -172.05222      2204118          147  0.007193656   -150259.36   -148586.13 
   32400    724.72858   -173.13703      2204118          147  0.007193656   -150254.09   -148538.82 
   32500    721.29033   -41.396989      2204118          147  0.007193656   -150202.81   -148495.69 
   32600    706.17685    1.2853996      2204118          147  0.007193656   -150246.93   -148575.57 
   32700     652.2812   -95.539771      2204118          147  0.007193656   -150216.62   -148672.83 
   32800    705.14643   -140.69921      2204118          147  0.007193656    -150325.7   -148656.79 
   32900    700.40546    59.457243      2204118          147  0.007193656   -150260.58   -148602.89 
   33000    729.57052    50.844958      2204118          147  0.007193656   -150256.36   -148529.64 
   33100    722.44244      217.851      2204118          147  0.007193656   -150257.57   -148547.72 
   33200     675.4806   -53.591173      2204118          147  0.007193656   -150283.25   -148684.54 
   33300    658.78571    20.928309      2204118          147  0.007193656    -150266.2   -148707.01 
   33400    710.08754   -219.51583      2204118          147  0.007193656   -150305.91    -148625.3 
   33500    718.89761   -20.389852      2204118          147  0.007193656   -150251.52   -148550.06 
   33600    727.22156   -30.118723      2204118          147  0.007193656   -150295.16      -148574 
   33700    709.10209   -124.60287      2204118          147  0.007193656   -150293.18    -148614.9 
   33800    723.89868   -31.111641      2204118          147  0.007193656   -150345.97   -148632.67 
   33900    689.59981    5.5603016      2204118          147  0.007193656   -150259.55   -148627.43 
   34000    683.89923    181.69454      2204118          147  0.007193656   -150250.27   -148631.65 
   34100    695.97239   -2.2443595      2204118          147  0.007193656   -150270.03   -148622.83 
   34200    719.87731    -53.40386      2204118          147  0.007193656   -150319.49   -148615.71 
   34300    681.83936    33.711288      2204118          147  0.007193656    -150221.8   -148608.05 
   34400    683.57617   -15.775723      2204118          147  0.007193656   -150237.43   -148619.57 
   34500    688.93003    27.788482      2204118          147  0.007193656    -150320.3   -148689.77 
   34600    685.36031   -85.450641      2204118          147  0.007193656   -150361.87   -148739.78 
   34700    698.98116   -18.218601      2204118          147  0.007193656   -150310.69   -148656.37 
   34800     688.3116   -7.4641277      2204118          147  0.007193656   -150198.14   -148569.07 
   34900    697.52576   -121.16797      2204118          147  0.007193656   -150217.45   -148566.57 
   35000    701.57444    84.654159      2204118          147  0.007193656   -150245.59   -148585.13 
   35100    693.98815    11.098274      2204118          147  0.007193656    -150256.5   -148613.99 
   35200    701.10812    116.91074      2204118          147  0.007193656   -150287.99   -148628.63 
   35300    693.51528    40.804241      2204118          147  0.007193656   -150273.89   -148632.51 
   35400      673.791    229.51642      2204118          147  0.007193656   -150232.13   -148637.43 
   35500    710.23337   -149.46756      2204118          147  0.007193656   -150307.15   -148626.19 
   35600    724.95306   -22.000828      2204118          147  0.007193656   -150314.36   -148598.57 
   35700    755.42474   -137.87811      2204118          147  0.007193656   -150346.94   -148559.03 
   35800    719.81489   -5.2549502      2204118          147  0.007193656   -150217.76   -148514.13 
   35900    742.06336   -90.120812      2204118          147  0.007193656   -150253.83   -148497.54 
   36000    752.66919   -123.60168      2204118          147  0.007193656   -150372.96   -148591.57 
   36100     685.3207    3.9555469      2204118          147  0.007193656   -150306.64   -148684.65 
   36200     693.7702    11.072901      2204118          147  0.007193656   -150304.26   -148662.27 
   36300      700.209    153.76833      2204118          147  0.007193656   -150282.37   -148625.14 
   36400    729.06084    49.788018      2204118          147  0.007193656   -150251.88   -148526.37 
   36500    727.55861   -13.386229      2204118          147  0.007193656   -150203.64   -148481.68 
   36600    703.97901   -140.85605      2204118          147  0.007193656    -150276.5   -148610.35 
   36700    686.79932    138.81119      2204118          147  0.007193656   -150290.67   -148665.18 
   36800     704.8938   -0.6826055      2204118          147  0.007193656   -150325.35   -148657.03 
   36900    702.33019    27.091198      2204118          147  0.007193656   -150276.47   -148614.22 
   37000    683.22071    15.922908      2204118          147  0.007193656   -150134.34   -148517.31 
   37100    701.62421   -37.731475      2204118          147  0.007193656   -150172.85   -148512.28 
   37200    676.71507    234.37667      2204118          147  0.007193656   -150258.93   -148657.31 
   37300     687.4784    88.074089      2204118          147  0.007193656   -150335.21   -148708.11 
   37400    689.27297    36.229188      2204118          147  0.007193656   -150302.73   -148671.39 
   37500     712.6733   -106.74721      2204118          147  0.007193656   -150283.92   -148597.19 
   37600    698.52482    33.304973      2204118          147  0.007193656   -150192.27   -148539.02 
   37700    706.06542    155.85209      2204118          147  0.007193656   -150195.12   -148524.03 
   37800    739.22202    124.28274      2204118          147  0.007193656    -150365.3   -148615.73 
   37900    666.74459    13.708215      2204118          147  0.007193656   -150272.96   -148694.93 
   38000    692.91641   -336.46035      2204118          147  0.007193656   -150320.17    -148680.2 
   38100    724.07336    67.204793      2204118          147  0.007193656   -150281.52   -148567.81 
   38200    736.40528   -48.853905      2204118          147  0.007193656   -150299.51   -148556.62 
   38300    707.92157    36.125039      2204118          147  0.007193656   -150276.53   -148601.05 
   38400    692.40216   -129.42238      2204118          147  0.007193656   -150287.51   -148648.76 
   38500    711.89674    49.904395      2204118          147  0.007193656   -150316.53   -148631.64 
   38600    751.96873    9.6282436      2204118          147  0.007193656   -150218.12   -148438.39 
   38700    712.92642    152.20934      2204118          147  0.007193656   -150153.85   -148466.52 
   38800    712.32405    52.430906      2204118          147  0.007193656   -150255.81    -148569.9 
   38900    703.66905    -44.76516      2204118          147  0.007193656   -150312.88   -148647.46 
   39000    696.97616   -85.391416      2204118          147  0.007193656   -150317.24   -148667.66 
   39100    708.96099   -173.94412      2204118          147  0.007193656   -150303.74    -148625.8 
   39200    735.67147    71.605056      2204118          147  0.007193656   -150242.87   -148501.71 
   39300    716.89711    34.072933      2204118          147  0.007193656      -150206   -148509.27 
   39400    711.25065   -103.25288      2204118          147  0.007193656   -150246.82   -148563.46 
   39500    721.56252    3.5168719      2204118          147  0.007193656   -150303.69   -148595.92 
   39600     700.9946     131.6339      2204118          147  0.007193656    -150289.6   -148630.51 
   39700    678.13839    236.53607      2204118          147  0.007193656   -150253.76   -148648.77 
   39800    721.52752   -159.94975      2204118          147  0.007193656   -150346.46   -148638.78 
   39900    689.16147   -90.327655      2204118          147  0.007193656   -150244.55   -148613.46 
   40000    722.52812   -15.837999      2204118          147  0.007193656   -150302.48   -148592.43 
   40100     706.4012    159.80374      2204118          147  0.007193656   -150272.15   -148600.27 
   40200    676.85181    52.747928      2204118          147  0.007193656   -150239.84   -148637.89 
   40300    645.10699   -167.77453      2204118          147  0.007193656   -150257.72   -148730.91 
   40400    672.19477   -106.14352      2204118          147  0.007193656   -150389.82   -148798.89 
   40500    692.18335   0.77605562      2204118          147  0.007193656   -150364.29   -148726.05 
   40600    684.31242    181.46411      2204118          147  0.007193656   -150229.11   -148609.51 
   40700    747.70027   -122.92163      2204118          147  0.007193656   -150363.13    -148593.5 
   40800    692.89542   -50.341507      2204118          147  0.007193656   -150299.14   -148659.22 
   40900    692.85652   -104.74479      2204118          147  0.007193656   -150319.51   -148679.68 
   41000    715.96441    154.49906      2204118          147  0.007193656   -150319.55   -148625.03 
   41100     674.0446  -0.32619157      2204118          147  0.007193656    -150121.4   -148526.09 
   41200    708.34907    81.687613      2204118          147  0.007193656   -150165.87   -148489.38 
   41300     703.3238   -125.50774      2204118          147  0.007193656   -150257.26   -148592.66 
   41400    692.56967   -1.9345259      2204118          147  0.007193656   -150284.09   -148644.94 
   41500    693.28879    21.357022      2204118          147  0.007193656   -150289.43   -148648.58 
   41600    700.78727   -55.492304      2204118          147  0.007193656   -150328.54   -148669.94 
   41700    697.93444   -28.188353      2204118          147  0.007193656   -150307.53   -148655.68 
   41800    715.41006   -51.972814      2204118          147  0.007193656   -150254.34   -148561.14 
   41900    718.51229    53.361819      2204118          147  0.007193656   -150200.38   -148499.83 
   42000     703.7856    210.09784      2204118          147  0.007193656   -150222.71   -148557.02 
   42100    702.18771    77.632582      2204118          147  0.007193656   -150285.68   -148623.76 
   42200    716.32611   -150.92376      2204118          147  0.007193656   -150329.13   -148633.76 
   42300    676.43456    -89.76011      2204118          147  0.007193656   -150235.79   -148634.83 
   42400    704.45826    43.849565      2204118          147  0.007193656   -150236.61   -148569.32 
   42500    722.99855    52.462041      2204118          147  0.007193656   -150200.03   -148488.86 
   42600    706.21162   -45.734685      2204118          147  0.007193656   -150210.37   -148538.94 
   42700    689.78521   -116.34291      2204118          147  0.007193656   -150282.65   -148650.09 
   42800    686.75456   -142.84809      2204118          147  0.007193656   -150276.37   -148650.99 
   42900    702.98181   -9.1203897      2204118          147  0.007193656   -150256.03   -148592.24 
   43000    737.58863    92.856768      2204118          147  0.007193656    -150261.6    -148515.9 
   43100      705.995    -78.68191      2204118          147  0.007193656   -150231.03   -148560.11 
   43200     667.8268   -107.69979      2204118          147  0.007193656    -150286.9   -148706.31 
   43300     669.5401   -109.22604      2204118          147  0.007193656   -150280.88   -148696.24 
   43400    672.98151    148.39924      2204118          147  0.007193656   -150227.61   -148634.83 
   43500    724.16201    61.813386      2204118          147  0.007193656   -150287.84   -148573.93 
   43600    732.73801   -158.32656      2204118          147  0.007193656   -150281.24   -148547.02 
   43700    703.32947   -252.62975      2204118          147  0.007193656   -150232.52   -148567.91 
   43800    701.74656   -29.958289      2204118          147  0.007193656   -150298.26   -148637.39 
   43900    698.02581   -24.515124      2204118          147  0.007193656   -150324.43   -148672.36 
   44000    702.54558    134.62467      2204118          147  0.007193656   -150298.09   -148635.33 
   44100    711.40484   -26.640316      2204118          147  0.007193656   -150253.12    -148569.4 
   44200    774.60285   -142.66079      2204118          147  0.007193656   -150316.95   -148483.64 
   44300    690.33002   -172.71689      2204118          147  0.007193656   -150141.94   -148508.09 
   44400    700.16234    70.086857      2204118          147  0.007193656   -150290.77   -148633.66 
   44500    712.91569    84.912398      2204118          147  0.007193656   -150351.54   -148664.24 
   44600    715.55691     1.457649      2204118          147  0.007193656   -150344.73   -148651.18 
   44700    716.11117   -47.166548      2204118          147  0.007193656   -150275.83   -148580.97 
   44800    740.78856    25.897105      2204118          147  0.007193656   -150258.27      -148505 
   44900    699.78731   -35.567778      2204118          147  0.007193656   -150154.51   -148498.27 
   45000    709.51482   -64.475416      2204118          147  0.007193656    -150292.8   -148613.54 
   45100    700.88501   -84.043978      2204118          147  0.007193656   -150326.85   -148668.03 
   45200     692.9216   -85.769995      2204118          147  0.007193656   -150297.78    -148657.8 
   45300    699.93841  -0.19700256      2204118          147  0.007193656   -150242.54   -148585.95 
   45400    718.99827    9.9907776      2204118          147  0.007193656   -150199.08   -148497.38 
   45500    750.45701   -24.080052      2204118          147  0.007193656   -150237.89   -148461.73 
   45600    720.54663   -60.902033      2204118          147  0.007193656   -150295.53   -148590.16 
   45700    703.65321     96.00197      2204118          147  0.007193656   -150323.57   -148658.18 
   45800    714.76943    83.261974      2204118          147  0.007193656   -150355.59    -148663.9 
   45900    666.13779   -152.92023      2204118          147  0.007193656   -150271.19    -148694.6 
   46000    728.25032   -42.293043      2204118          147  0.007193656   -150377.52   -148653.92 
   46100    732.55566    33.089713      2204118          147  0.007193656   -150281.47   -148547.69 
   46200    717.36818    51.131492      2204118          147  0.007193656   -150209.25   -148511.41 
   46300    698.44578   -22.782156      2204118          147  0.007193656   -150201.25    -148548.2 
   46400    682.35463   -22.480101      2204118          147  0.007193656    -150292.8   -148677.83 
   46500    687.92065     33.46899      2204118          147  0.007193656   -150291.81   -148663.66 
   46600    696.43704    61.116827      2204118          147  0.007193656   -150269.34   -148621.04 
   46700    715.19748    47.372746      2204118          147  0.007193656   -150255.55   -148562.84 
   46800    730.64457    110.88623      2204118          147  0.007193656   -150226.65   -148497.39 
   46900     708.1922   -85.072969      2204118          147  0.007193656   -150162.84   -148486.72 
   47000    691.30599    26.453387      2204118          147  0.007193656   -150249.47   -148613.31 
   47100     669.9596   -31.355645      2204118          147  0.007193656   -150248.83   -148663.19 
   47200    662.13909   -3.3188515      2204118          147  0.007193656   -150212.84   -148645.71 
   47300    723.99806    27.582802      2204118          147  0.007193656   -150282.08   -148568.55 
   47400    724.28676   -114.48258      2204118          147  0.007193656   -150203.85   -148489.63 
   47500    675.26263   -237.41029      2204118          147  0.007193656   -150130.09    -148531.9 
   47600    700.75177    82.993476      2204118          147  0.007193656   -150338.18   -148679.67 
   47700    671.43052    45.381539      2204118          147  0.007193656   -150272.46   -148683.34 
   47800    718.68729    33.093551      2204118          147  0.007193656   -150313.46    -148612.5 
   47900    722.25998   -29.399496      2204118          147  0.007193656   -150254.03   -148544.61 
   48000    697.89737   -73.777766      2204118          147  0.007193656   -150162.36    -148510.6 
   48100    683.68577    106.02306      2204118          147  0.007193656   -150230.62   -148612.49 
   48200    674.81001    160.41759      2204118          147  0.007193656   -150303.23   -148706.11 
   48300    693.17272    93.104161      2204118          147  0.007193656      -150335   -148694.42 
   48400    683.21091 -0.062164546      2204118          147  0.007193656   -150216.87   -148599.87 
   48500    738.03306   -125.09062      2204118          147  0.007193656      -150274   -148527.25 
   48600    709.66566   -88.849596      2204118          147  0.007193656   -150219.79   -148540.18 
   48700    719.11767    24.168556      2204118          147  0.007193656   -150269.22   -148567.24 
   48800    695.07336     7.141766      2204118          147  0.007193656   -150242.54   -148597.46 
   48900    711.01842   -65.365092      2204118          147  0.007193656   -150281.57   -148598.76 
   49000    707.45017    21.007741      2204118          147  0.007193656   -150262.04   -148587.67 
   49100    698.75048     126.1252      2204118          147  0.007193656   -150227.07   -148573.29 
   49200    712.92611     130.4292      2204118          147  0.007193656   -150223.82   -148536.49 
   49300    696.64355    168.44131      2204118          147  0.007193656    -150200.3   -148551.51 
   49400     706.6269   -21.755685      2204118          147  0.007193656   -150297.94   -148625.52 
   49500    679.24965   -82.587844      2204118          147  0.007193656   -150279.65   -148672.03 
   49600    718.59579   -12.148677      2204118          147  0.007193656   -150365.74   -148664.99 
   49700    694.85982    110.14995      2204118          147  0.007193656   -150205.11   -148560.54 
   49800    705.91349   -79.580121      2204118          147  0.007193656   -150150.73      -148480 
   49900    699.06555   -108.85386      2204118          147  0.007193656   -150150.91   -148496.39 
   50000    684.24344    -140.1059      2204118          147  0.007193656   -150221.28   -148601.84 
   50100     680.5925    75.497635      2204118          147  0.007193656   -150244.71   -148633.91 
   50200    724.96065    46.629078      2204118          147  0.007193656   -150359.91    -148644.1 
   50300     685.8414   -17.618945      2204118          147  0.007193656   -150266.88   -148643.65 
   50400    717.87511   -69.629345      2204118          147  0.007193656   -150244.39   -148545.35 
   50500      764.275    229.08758      2204118          147  0.007193656   -150246.41   -148437.55 
   50600    705.98528    108.48178      2204118          147  0.007193656   -150165.09   -148494.19 
   50700    734.83711    11.040816      2204118          147  0.007193656    -150303.2   -148564.01 
   50800    671.00879   -120.93144      2204118          147  0.007193656   -150203.49   -148615.37 
   50900    703.93709   -80.005874      2204118          147  0.007193656   -150281.97   -148615.92 
   51000    702.14246    114.67411      2204118          147  0.007193656   -150237.25   -148575.44 
   51100    733.06124   -2.7604938      2204118          147  0.007193656   -150177.06   -148442.07 
   51200    754.36508    5.9535964      2204118          147  0.007193656   -150213.72   -148428.32 
   51300    709.48544   -42.947518      2204118          147  0.007193656   -150212.66   -148533.48 
   51400    692.89019   -176.90677      2204118          147  0.007193656   -150219.76   -148579.86 
   51500    681.57081    179.35058      2204118          147  0.007193656   -150259.49   -148646.38 
   51600    694.24191    244.30493      2204118          147  0.007193656   -150309.21    -148666.1 
   51700     711.2823    116.88487      2204118          147  0.007193656   -150308.94   -148625.51 
   51800    720.32694    -165.3391      2204118          147  0.007193656   -150206.56   -148501.71 
   51900      725.567   -179.70257      2204118          147  0.007193656   -150179.39   -148462.15 
   52000    698.49576     1.721151      2204118          147  0.007193656   -150187.51   -148534.34 
   52100    714.97549    63.782519      2204118          147  0.007193656   -150296.08    -148603.9 
   52200    685.50787   -81.832178      2204118          147  0.007193656   -150253.49   -148631.06 
   52300    672.76255    -85.64324      2204118          147  0.007193656   -150225.41   -148633.14 
   52400    696.26439   -64.070151      2204118          147  0.007193656    -150203.5    -148555.6 
   52500    735.39775    116.57903      2204118          147  0.007193656      -150207   -148466.49 
   52600    706.90506    -26.17019      2204118          147  0.007193656   -150185.31   -148512.24 
   52700    674.54493     19.32873      2204118          147  0.007193656   -150227.61   -148631.13 
   52800     701.9385   -82.952036      2204118          147  0.007193656   -150300.53   -148639.21 
   52900    702.01495    41.111831      2204118          147  0.007193656   -150292.61   -148631.11 
   53000    712.25508   -23.514046      2204118          147  0.007193656   -150318.37   -148632.63 
   53100     688.7558    34.839773      2204118          147  0.007193656   -150249.64   -148619.52 
   53200    696.53884   -54.778821      2204118          147  0.007193656   -150278.71   -148630.17 
   53300    699.52594    -113.0468      2204118          147  0.007193656   -150274.82    -148619.2 
   53400    695.15299    244.92605      2204118          147  0.007193656   -150222.07   -148576.81 
   53500     730.5171   -61.999675      2204118          147  0.007193656   -150265.96      -148537 
   53600    713.16144   -171.74229      2204118          147  0.007193656   -150297.23   -148609.34 
   53700    685.89557   -68.291712      2204118          147  0.007193656   -150306.51   -148683.15 
   53800    705.16704    138.93172      2204118          147  0.007193656   -150348.12   -148679.16 
   53900     712.0378    29.250254      2204118          147  0.007193656   -150315.66   -148630.43 
   54000    703.85243    114.34053      2204118          147  0.007193656   -150188.95    -148523.1 
   54100    706.65616   -122.78934      2204118          147  0.007193656   -150121.84   -148449.35 
   54200      786.722    41.884538      2204118          147  0.007193656   -150213.05   -148351.06 
   54300    700.13624    51.638897      2204118          147  0.007193656   -150121.32   -148464.26 
   54400    687.40756    12.618936      2204118          147  0.007193656   -150190.79   -148563.86 
   54500    719.44579   -77.523424      2204118          147  0.007193656   -150325.23   -148622.47 
   54600    695.98751   -187.52764      2204118          147  0.007193656   -150301.57   -148654.33 
   54700     728.2936   -129.60749      2204118          147  0.007193656   -150394.37   -148670.67 
   54800     694.8665   -43.957591      2204118          147  0.007193656   -150287.64   -148643.05 
   54900    747.14329    163.05052      2204118          147  0.007193656    -150326.2   -148557.89 
   55000    715.53619    -26.88912      2204118          147  0.007193656   -150214.69   -148521.19 
   55100    727.56853   -37.407213      2204118          147  0.007193656   -150237.79   -148515.81 
   55200     703.5501    70.607389      2204118          147  0.007193656   -150252.37   -148587.24 
   55300    651.61323    110.75255      2204118          147  0.007193656   -150235.35   -148693.14 
   55400    692.18849    217.75742      2204118          147  0.007193656   -150342.83   -148704.58 
   55500    667.53096    100.44196      2204118          147  0.007193656   -150224.14   -148644.25 
   55600    733.61587   -145.78285      2204118          147  0.007193656   -150262.86   -148526.57 
   55700    704.34378   -62.225636      2204118          147  0.007193656   -150192.21    -148525.2 
   55800     719.0359    106.09388      2204118          147  0.007193656   -150264.11   -148562.32 
   55900    671.36866   -51.441359      2204118          147  0.007193656   -150225.06   -148636.09 
   56000    667.22785    26.257353      2204118          147  0.007193656   -150231.22   -148652.05 
   56100    696.54071   -21.036385      2204118          147  0.007193656   -150269.25   -148620.71 
   56200    720.98665    58.359622      2204118          147  0.007193656   -150306.18   -148599.78 
   56300    700.22678    155.05862      2204118          147  0.007193656   -150252.89   -148595.62 
   56400    682.57058    111.28126      2204118          147  0.007193656   -150223.49   -148608.01 
   56500    665.83932    23.705536      2204118          147  0.007193656   -150251.25   -148675.37 
   56600    649.67077   -102.04939      2204118          147  0.007193656   -150318.34   -148780.72 
   56700    677.52813   -164.74807      2204118          147  0.007193656   -150380.61   -148777.06 
   56800    683.42808    92.181665      2204118          147  0.007193656   -150230.32   -148612.81 
   56900    715.32864    16.599301      2204118          147  0.007193656   -150271.56   -148578.55 
   57000    706.54761    62.555089      2204118          147  0.007193656   -150245.95   -148573.71 
   57100    706.91544    -24.66473      2204118          147  0.007193656   -150259.97   -148586.86 
   57200    683.69977   -58.344665      2204118          147  0.007193656   -150268.29   -148650.13 
   57300    744.81101     133.6196      2204118          147  0.007193656   -150464.46   -148701.67 
   57400    696.03763   -34.896014      2204118          147  0.007193656   -150418.17   -148770.81 
   57500    715.86019   -20.478349      2204118          147  0.007193656   -150508.93   -148814.66 
   57600    679.90185    -84.46885      2204118          147  0.007193656   -150302.11   -148692.94 
   57700    701.87266    77.292005      2204118          147  0.007193656   -150277.78   -148616.61 
   57800    742.12089    51.229223      2204118          147  0.007193656   -150362.02    -148605.6 
   57900    674.56131    55.222553      2204118          147  0.007193656   -150239.95   -148643.42 
   58000    691.21404    12.652423      2204118          147  0.007193656    -150320.4   -148684.46 
   58100    713.76942    44.701738      2204118          147  0.007193656   -150400.47   -148711.15 
   58200     687.0104   -113.06984      2204118          147  0.007193656   -150330.15   -148704.16 
   58300    706.36954    272.86582      2204118          147  0.007193656   -150287.37   -148615.57 
   58400    720.38101   -101.45709      2204118          147  0.007193656    -150265.5   -148560.53 
   58500    713.21747   -6.0474317      2204118          147  0.007193656   -150296.48   -148608.46 
   58600    720.96305   -55.215102      2204118          147  0.007193656   -150418.11   -148711.76 
   58700    687.40978    104.01228      2204118          147  0.007193656   -150359.63   -148732.69 
   58800    670.60708   -123.29627      2204118          147  0.007193656   -150285.53   -148698.36 
   58900    679.03008   -127.03895      2204118          147  0.007193656   -150244.36   -148637.26 
   59000     724.9336   -72.043009      2204118          147  0.007193656   -150306.57   -148590.83 
   59100    685.16038    5.2016636      2204118          147  0.007193656   -150195.21    -148573.6 
   59200    684.79044   -92.743106      2204118          147  0.007193656   -150296.12   -148675.38 
   59300    676.06816    118.75252      2204118          147  0.007193656   -150323.51   -148723.42 
   59400    682.32997   -123.05447      2204118          147  0.007193656   -150304.81   -148689.89 
   59500    718.46369    4.6520415      2204118          147  0.007193656   -150286.42   -148585.98 
   59600    746.47286    -47.67407      2204118          147  0.007193656   -150268.84   -148502.11 
   59700    711.50655   -73.175664      2204118          147  0.007193656   -150206.66    -148522.7 
   59800    686.80244   -69.755156      2204118          147  0.007193656   -150217.24   -148591.74 
   59900    704.00948    93.245792      2204118          147  0.007193656    -150287.7   -148621.48 
   60000    674.95715   -81.690412      2204118          147  0.007193656   -150261.11   -148663.65 
   60100    678.25288     120.4133      2204118          147  0.007193656   -150322.91   -148717.65 
   60200     659.1968    -61.90639      2204118          147  0.007193656   -150363.29   -148803.13 
   60300    682.04843    68.618771      2204118          147  0.007193656    -150385.3   -148771.05 
   60400    683.92829   -181.05265      2204118          147  0.007193656    -150275.6    -148656.9 
   60500    716.73116    91.363003      2204118          147  0.007193656   -150298.62   -148602.29 
   60600    757.37618    86.625371      2204118          147  0.007193656   -150349.13    -148556.6 
   60700    691.11994    66.474904      2204118          147  0.007193656   -150215.95   -148580.23 
   60800    700.47444    89.569806      2204118          147  0.007193656   -150355.16    -148697.3 
   60900    684.81598   -99.425134      2204118          147  0.007193656   -150346.19   -148725.39 
   61000    695.31747    128.81655      2204118          147  0.007193656   -150316.31   -148670.66 
   61100     704.0385    3.9306173      2204118          147  0.007193656   -150290.34   -148624.05 
   61200    699.85745    103.50512      2204118          147  0.007193656   -150271.23   -148614.84 
   61300    711.11411   -101.83741      2204118          147  0.007193656   -150303.85   -148620.81 
   61400    703.88046     38.17385      2204118          147  0.007193656   -150285.13   -148619.21 
   61500    677.04372   -14.208852      2204118          147  0.007193656   -150273.59   -148671.19 
   61600    690.73141   -114.25949      2204118          147  0.007193656   -150374.83   -148740.03 
   61700    676.85886   -173.35222      2204118          147  0.007193656   -150318.82   -148716.85 
   61800    699.50993   -141.84845      2204118          147  0.007193656   -150277.07    -148621.5 
   61900    713.97581    206.72388      2204118          147  0.007193656   -150249.39   -148559.58 
   62000    684.53393    40.794702      2204118          147  0.007193656   -150234.85   -148614.72 
   62100     676.8144   -81.779209      2204118          147  0.007193656   -150254.98   -148653.13 
   62200    691.28081     62.55283      2204118          147  0.007193656   -150295.25   -148659.16 
   62300    726.74526   -32.293973      2204118          147  0.007193656   -150351.71   -148631.68 
   62400    704.01596    17.702819      2204118          147  0.007193656      -150290   -148623.76 
   62500    697.84852    2.9654256      2204118          147  0.007193656   -150286.48   -148634.84 
   62600    698.60544   -204.39276      2204118          147  0.007193656   -150277.95   -148624.52 
   62700     712.6716   -50.346245      2204118          147  0.007193656   -150230.98   -148544.26 
   62800    716.15435    74.583155      2204118          147  0.007193656   -150188.56   -148493.59 
   62900    703.57328    1.0795966      2204118          147  0.007193656    -150233.9   -148568.71 
   63000    678.27376    -15.45888      2204118          147  0.007193656   -150271.44   -148666.13 
   63100    703.41643   -126.03436      2204118          147  0.007193656   -150337.24   -148672.42 
   63200    686.22674   -42.997068      2204118          147  0.007193656    -150243.8   -148619.66 
   63300    730.73284    25.207183      2204118          147  0.007193656   -150239.94   -148510.47 
   63400    767.57075    68.910924      2204118          147  0.007193656    -150303.3   -148486.64 
   63500    715.54725    83.220464      2204118          147  0.007193656    -150227.3   -148533.77 
   63600    704.41796    47.855837      2204118          147  0.007193656   -150268.26   -148601.07 
   63700    692.31779   -165.32194      2204118          147  0.007193656   -150271.65    -148633.1 
   63800    691.71024   -18.089517      2204118          147  0.007193656   -150290.98   -148653.87 
   63900    696.68277    33.421918      2204118          147  0.007193656   -150310.75   -148661.87 
   64000    698.12597    -105.9086      2204118          147  0.007193656   -150277.29   -148624.99 
   64100    688.36126   -39.393116      2204118          147  0.007193656   -150193.21   -148564.03 
   64200    700.56132   -42.822064      2204118          147  0.007193656   -150178.28   -148520.22 
   64300    707.34331    125.26923      2204118          147  0.007193656   -150241.79   -148567.67 
   64400    688.95718   -89.967078      2204118          147  0.007193656   -150312.25   -148681.65 
   64500    683.11962   -14.665914      2204118          147  0.007193656   -150279.96   -148663.17 
   64600    679.74726   -1.6298751      2204118          147  0.007193656   -150217.01   -148608.21 
   64700    711.27195    21.987253      2204118          147  0.007193656   -150221.25   -148537.83 
   64800    714.38786    28.309067      2204118          147  0.007193656   -150248.66   -148557.87 
   64900    726.21341    38.564549      2204118          147  0.007193656   -150319.92   -148601.15 
   65000    704.55543   -112.57694      2204118          147  0.007193656   -150283.49   -148615.98 
   65100    663.36639    26.014217      2204118          147  0.007193656   -150179.46   -148609.43 
   65200    714.48119    44.119114      2204118          147  0.007193656   -150317.75   -148626.74 
   65300    659.47008     115.3521      2204118          147  0.007193656   -150277.98   -148717.17 
   65400    671.88854    28.702097      2204118          147  0.007193656   -150318.31   -148728.11 
   65500    704.81169    -61.50513      2204118          147  0.007193656   -150279.81   -148611.69 
   65600    719.15789   -16.979405      2204118          147  0.007193656   -150262.97   -148560.89 
   65700    701.71705    76.648536      2204118          147  0.007193656   -150255.25   -148594.45 
   65800    675.89291     30.87416      2204118          147  0.007193656   -150237.51   -148637.83 
   65900    688.34659   -113.42267      2204118          147  0.007193656   -150310.61   -148681.46 
   66000    672.57477   -5.8347183      2204118          147  0.007193656   -150335.77   -148743.94 
   66100    684.16208    102.51902      2204118          147  0.007193656   -150347.99   -148728.74 
   66200    702.03186     80.65663      2204118          147  0.007193656    -150272.3   -148610.75 
   66300    701.21566    53.897742      2204118          147  0.007193656   -150228.04   -148568.42 
   66400    708.65735   -127.14166      2204118          147  0.007193656   -150241.83   -148564.61 
   66500    707.84464    -119.2414      2204118          147  0.007193656   -150275.82   -148600.52 
   66600    681.31776   -67.826846      2204118          147  0.007193656   -150312.93   -148700.41 
   66700    671.16675    148.44934      2204118          147  0.007193656   -150290.48   -148701.99 
   66800    660.41105    228.71232      2204118          147  0.007193656   -150193.02   -148629.99 
   66900    732.21683   -26.795519      2204118          147  0.007193656   -150255.93   -148522.95 
   67000    688.14246    37.152061      2204118          147  0.007193656   -150129.95   -148501.28 
   67100    728.48399   -16.014153      2204118          147  0.007193656   -150246.46   -148522.31 
   67200    718.06232    63.437959      2204118          147  0.007193656   -150303.56   -148604.08 
   67300    693.96893    164.94658      2204118          147  0.007193656   -150314.25   -148671.79 
   67400    663.79356    40.373263      2204118          147  0.007193656   -150249.16   -148678.11 
   67500    730.61117   -36.885276      2204118          147  0.007193656    -150334.7   -148605.52 
   67600    749.10798   -2.3876082      2204118          147  0.007193656   -150276.04   -148503.08 
   67700    719.00999    222.90248      2204118          147  0.007193656   -150215.27   -148513.55 
   67800    741.59104    2.3306242      2204118          147  0.007193656   -150342.16   -148586.99 
   67900    690.27843   -9.7028404      2204118          147  0.007193656   -150287.53    -148653.8 
   68000    701.79465   -165.48381      2204118          147  0.007193656   -150326.33   -148665.35 
   68100    715.12163   -28.119923      2204118          147  0.007193656   -150284.03   -148591.51 
   68200    713.80049   -37.600527      2204118          147  0.007193656    -150165.4      -148476 
   68300    704.37345   -6.3032327      2204118          147  0.007193656   -150129.47   -148462.38 
   68400    700.32867   -27.220591      2204118          147  0.007193656   -150253.66   -148596.15 
   68500    692.37778    56.869141      2204118          147  0.007193656   -150277.93   -148639.23 
   68600     662.9027   -1.8267901      2204118          147  0.007193656   -150206.68   -148637.74 
   68700    720.71514   -133.93384      2204118          147  0.007193656   -150304.36    -148598.6 
   68800    735.35828   -144.79833      2204118          147  0.007193656    -150299.8   -148559.38 
   68900    685.23046    7.9190338      2204118          147  0.007193656   -150158.83   -148537.05 
   69000    706.59608    17.658282      2204118          147  0.007193656    -150280.5   -148608.16 
   69100    689.88054    83.195308      2204118          147  0.007193656   -150330.76   -148697.98 
   69200    694.17795   -32.984032      2204118          147  0.007193656   -150320.17   -148677.21 
   69300    711.33834   -134.00422      2204118          147  0.007193656   -150283.98   -148600.41 
   69400    738.87956    70.852576      2204118          147  0.007193656   -150307.77   -148559.02 
   69500    722.10732   -208.78908      2204118          147  0.007193656   -150289.75   -148580.69 
   69600    704.32914   -81.096521      2204118          147  0.007193656    -150255.3   -148588.32 
   69700    706.23342   0.11226204      2204118          147  0.007193656   -150267.05   -148595.56 
   69800    664.19248   0.90725039      2204118          147  0.007193656   -150254.65   -148682.66 
   69900      665.852   -33.368224      2204118          147  0.007193656    -150328.6   -148752.68 
   70000    679.36144   -79.474426      2204118          147  0.007193656   -150271.44   -148663.55 
   70100    719.38883    51.244125      2204118          147  0.007193656   -150254.93    -148552.3 
   70200    719.70284    62.701852      2204118          147  0.007193656   -150280.99   -148577.62 
   70300    675.23524   -86.122859      2204118          147  0.007193656   -150222.45   -148624.33 
   70400    688.28818    107.28665      2204118          147  0.007193656   -150335.13   -148706.12 
   70500    703.69337     214.1819      2204118          147  0.007193656   -150383.49   -148718.02 
   70600    714.25819    132.21019      2204118          147  0.007193656   -150294.42   -148603.94 
   70700    674.59746   -50.070875      2204118          147  0.007193656   -150122.41    -148525.8 
   70800    699.62607     10.07691      2204118          147  0.007193656   -150208.23   -148552.38 
   70900    688.09565   -46.867192      2204118          147  0.007193656   -150281.75    -148653.2 
   71000    713.21713   -3.8257281      2204118          147  0.007193656   -150366.95   -148678.94 
   71100    725.62845   -34.940706      2204118          147  0.007193656   -150371.76   -148654.37 
   71200    696.59548  0.017547295      2204118          147  0.007193656   -150270.04   -148621.36 
   71300    714.91831     18.83217      2204118          147  0.007193656   -150262.71   -148570.67 
   71400    744.75238   -98.707577      2204118          147  0.007193656   -150220.17   -148457.52 
   71500    668.34235    31.387449      2204118          147  0.007193656   -150071.44   -148489.63 
   71600    707.25822    16.316009      2204118          147  0.007193656   -150275.41    -148601.5 
   71700    732.77189    74.862668      2204118          147  0.007193656   -150371.46   -148637.17 
   71800    682.30151    90.181861      2204118          147  0.007193656   -150262.21   -148647.36 
   71900    693.44802   -67.857227      2204118          147  0.007193656   -150323.32    -148682.1 
   72000    642.84856    64.103579      2204118          147  0.007193656    -150213.6   -148692.13 
   72100    713.35495   -15.578812      2204118          147  0.007193656   -150340.77   -148652.43 
   72200    745.12504    41.570024      2204118          147  0.007193656   -150328.02   -148564.48 
   72300    728.13103    93.882521      2204118          147  0.007193656   -150248.53   -148525.22 
   72400    693.18489   -76.232843      2204118          147  0.007193656   -150186.13   -148545.52 
   72500    690.30795    30.724755      2204118          147  0.007193656   -150319.48   -148685.69 
   72600    667.97478    193.65001      2204118          147  0.007193656   -150296.57   -148715.63 
   72700    695.51262     17.54727      2204118          147  0.007193656   -150297.02    -148650.9 
   72800    734.59318   -32.856583      2204118          147  0.007193656   -150304.91    -148566.3 
   72900    723.84045   -41.470104      2204118          147  0.007193656   -150279.95   -148566.79 
   73000    718.98241    124.44791      2204118          147  0.007193656   -150306.76    -148605.1 
   73100    705.55493   -15.901672      2204118          147  0.007193656    -150324.8   -148654.92 
   73200    672.62535     32.39748      2204118          147  0.007193656   -150291.96   -148700.01 
   73300    654.80593    29.725602      2204118          147  0.007193656    -150363.4   -148813.63 
   73400    667.57875   -13.282918      2204118          147  0.007193656   -150348.43   -148768.43 
   73500      678.043  -0.37217509      2204118          147  0.007193656   -150250.21   -148645.45 
   73600    708.82879    19.429533      2204118          147  0.007193656   -150275.76   -148598.13 
   73700    719.37798    196.77832      2204118          147  0.007193656   -150306.56   -148603.96 
   73800     702.6666   -45.872758      2204118          147  0.007193656   -150329.55    -148666.5 
   73900    665.69266    83.497391      2204118          147  0.007193656   -150312.22   -148736.69 
   74000    689.89384   -106.43852      2204118          147  0.007193656   -150358.37   -148725.55 
   74100    720.45332   -6.0802272      2204118          147  0.007193656   -150286.89   -148581.75 
   74200    658.79321   -84.265502      2204118          147  0.007193656   -150098.87   -148539.67 
   74300    708.08281    15.318196      2204118          147  0.007193656   -150241.11   -148565.24 
   74400    679.44797   -64.679901      2204118          147  0.007193656    -150263.7   -148655.61 
   74500    677.70837    136.11809      2204118          147  0.007193656   -150302.37   -148698.39 
   74600    715.46153     62.72813      2204118          147  0.007193656   -150361.72   -148668.39 
   74700    710.44683    43.655929      2204118          147  0.007193656   -150183.55   -148502.09 
   74800    727.83709   -4.3810621      2204118          147  0.007193656   -150236.48   -148513.87 
   74900    660.49154   -50.792148      2204118          147  0.007193656   -150180.25   -148617.02 
   75000     700.7846  -0.59384227      2204118          147  0.007193656   -150298.29    -148639.7 
[...]
  381700     687.3876   -98.031455      2204118          147  0.007193656   -150273.93   -148647.05 
  381800    707.49899    89.617107      2204118          147  0.007193656   -150307.33   -148632.84 
  381900    709.37017   -37.518632      2204118          147  0.007193656   -150265.13   -148586.22 
  382000    724.86948    -111.1821      2204118          147  0.007193656   -150265.23   -148549.64 
  382100    715.27634   -47.867709      2204118          147  0.007193656   -150287.48    -148594.6 
  382200    720.13056   -72.255926      2204118          147  0.007193656   -150395.97   -148691.59 
  382300    700.59432   -25.303938      2204118          147  0.007193656   -150383.95   -148725.81 
  382400    690.34142    162.91834      2204118          147  0.007193656    -150332.4   -148698.52 
  382500    699.68139   -86.319755      2204118          147  0.007193656   -150244.17   -148588.19 
  382600    719.05883    -19.25347      2204118          147  0.007193656   -150227.51   -148525.67 
  382700    712.57824   -41.244484      2204118          147  0.007193656   -150245.26   -148558.76 
  382800     678.0898    99.936402      2204118          147  0.007193656   -150225.36   -148620.48 
  382900    727.52976    45.408078      2204118          147  0.007193656   -150397.72   -148675.82 
  383000    674.58497   -36.668127      2204118          147  0.007193656   -150299.28    -148702.7 
  383100    700.50633    -27.61642      2204118          147  0.007193656   -150310.02   -148652.09 
  383200    729.98274    124.54715      2204118          147  0.007193656   -150211.83   -148484.13 
  383300    697.76669   -55.145189      2204118          147  0.007193656   -150184.88   -148533.43 
  383400    734.36612   -25.084401      2204118          147  0.007193656    -150356.3   -148618.22 
  383500    652.76314    4.3951017      2204118          147  0.007193656   -150230.57   -148685.63 
  383600    702.77102    7.4881333      2204118          147  0.007193656   -150352.08   -148688.79 
  383700    692.27518    5.0382748      2204118          147  0.007193656   -150243.65    -148605.2 
  383800    722.89994    -53.77928      2204118          147  0.007193656   -150226.22   -148515.28 
  383900    717.03498   -8.4249459      2204118          147  0.007193656   -150244.51   -148547.46 
  384000    702.42151   -61.634359      2204118          147  0.007193656   -150262.69   -148600.23 
  384100    672.62191    146.75571      2204118          147  0.007193656   -150217.36   -148625.43 
  384200     728.2094   -63.053903      2204118          147  0.007193656   -150353.05   -148629.55 
  384300    714.17558    127.81371      2204118          147  0.007193656   -150321.62   -148631.33 
  384400    711.63558    8.1381068      2204118          147  0.007193656   -150327.34   -148643.06 
  384500    671.69264   -1.7344721      2204118          147  0.007193656   -150336.78   -148747.04 
  384600    672.18105   -44.824321      2204118          147  0.007193656   -150378.88   -148787.99 
  384700    698.54029   -141.80734      2204118          147  0.007193656   -150334.48    -148681.2 
  384800    711.61089    52.720624      2204118          147  0.007193656   -150301.53   -148617.31 
  384900    697.90742   -90.213432      2204118          147  0.007193656   -150275.67   -148623.89 
  385000    704.33522    17.465583      2204118          147  0.007193656   -150287.52   -148620.52 
  385100    656.15341   -26.738669      2204118          147  0.007193656   -150213.92   -148660.96 
  385200    669.63879   -92.903661      2204118          147  0.007193656   -150317.54   -148732.66 
  385300    678.26954    29.709073      2204118          147  0.007193656      -150362   -148756.69 
  385400    705.66626   -85.254587      2204118          147  0.007193656   -150328.08   -148657.94 
  385500    732.02532   -80.579276      2204118          147  0.007193656   -150290.93    -148558.4 
  385600    702.68824   -2.0897953      2204118          147  0.007193656   -150236.31   -148573.22 
  385700    713.89634    5.0105455      2204118          147  0.007193656   -150297.26   -148607.63 
  385800    688.49594   -230.19424      2204118          147  0.007193656   -150338.19   -148708.69 
  385900    676.89666    83.074026      2204118          147  0.007193656   -150353.12   -148751.06 
  386000    700.46969    2.6059611      2204118          147  0.007193656   -150330.48   -148672.64 
  386100    714.43717   -79.267582      2204118          147  0.007193656   -150268.62   -148577.71 
  386200    709.74476   -107.65609      2204118          147  0.007193656   -150289.23   -148609.43 
  386300    688.16743   -115.83724      2204118          147  0.007193656   -150310.26   -148681.53 
  386400     696.1175   -53.397754      2204118          147  0.007193656   -150355.58   -148708.04 
  386500    678.55423    174.67723      2204118          147  0.007193656   -150278.01   -148672.03 
  386600    716.27617    8.7622848      2204118          147  0.007193656   -150277.75    -148582.5 
  386700    713.96922    51.661841      2204118          147  0.007193656    -150189.3   -148499.51 
  386800    751.38807   -51.610049      2204118          147  0.007193656   -150303.62   -148525.27 
  386900    729.28923    16.935498      2204118          147  0.007193656   -150335.08   -148609.02 
  387000    706.35467     159.8505      2204118          147  0.007193656   -150300.29   -148628.51 
  387100    668.89655   -82.997104      2204118          147  0.007193656   -150252.97   -148669.85 
  387200    696.61753   -58.046881      2204118          147  0.007193656   -150355.31   -148706.59 
  387300    723.03724    46.919031      2204118          147  0.007193656   -150366.06    -148654.8 
  387400    709.55314    83.815851      2204118          147  0.007193656   -150245.12   -148565.78 
  387500    724.09046    16.864328      2204118          147  0.007193656   -150301.56   -148587.81 
  387600    680.28458    19.341841      2204118          147  0.007193656   -150252.22   -148642.15 
  387700    685.17865   -135.78986      2204118          147  0.007193656   -150299.51   -148677.86 
  387800    701.24269   -1.7790783      2204118          147  0.007193656   -150323.21   -148663.54 
  387900    689.41806    65.710397      2204118          147  0.007193656   -150273.02   -148641.33 
  388000    696.79037    108.23006      2204118          147  0.007193656   -150283.92   -148634.78 
  388100    685.38918   -57.274799      2204118          147  0.007193656   -150299.05    -148676.9 
  388200    649.27166    9.7572237      2204118          147  0.007193656    -150266.5   -148729.83 
  388300    702.20786    50.297014      2204118          147  0.007193656      -150410   -148748.04 
  388400    671.89362     51.78714      2204118          147  0.007193656   -150286.87   -148696.65 
  388500    699.77918   -65.555412      2204118          147  0.007193656   -150238.16   -148581.95 
  388600    724.98506   -20.887612      2204118          147  0.007193656   -150279.75   -148563.88 
  388700    707.88912   -68.043494      2204118          147  0.007193656   -150307.31    -148631.9 
  388800    690.97701    7.1189529      2204118          147  0.007193656   -150314.13   -148678.75 
  388900    693.98167   -102.93384      2204118          147  0.007193656   -150363.81   -148721.32 
  389000    629.69235    11.231662      2204118          147  0.007193656   -150275.26   -148784.93 
  389100    667.02451    19.794617      2204118          147  0.007193656   -150331.28   -148752.59 
  389200    699.90537   -74.771881      2204118          147  0.007193656   -150300.82   -148644.31 
  389300    708.30724   -105.76811      2204118          147  0.007193656   -150266.84   -148590.44 
  389400    701.17801   -47.333572      2204118          147  0.007193656   -150228.05   -148568.53 
  389500    735.22787    40.193676      2204118          147  0.007193656   -150298.56   -148558.45 
  389600    703.93727    58.265987      2204118          147  0.007193656   -150340.83   -148674.77 
  389700    651.70596    48.675621      2204118          147  0.007193656   -150268.44      -148726 
  389800    681.76143     1.883926      2204118          147  0.007193656   -150308.41   -148694.84 
  389900    698.58348    51.401623      2204118          147  0.007193656   -150235.14   -148581.76 
  390000    715.40352    2.8581115      2204118          147  0.007193656   -150253.81   -148560.62 
  390100     730.1029    30.152112      2204118          147  0.007193656   -150321.43   -148593.45 
  390200    695.35061   -53.147408      2204118          147  0.007193656   -150274.75   -148629.02 
  390300    671.41913    25.419854      2204118          147  0.007193656   -150242.41   -148653.32 
  390400    703.06219   -76.030132      2204118          147  0.007193656   -150373.34   -148709.36 
  390500    656.22867    -93.79151      2204118          147  0.007193656   -150380.14      -148827 
  390600    641.74035    45.442536      2204118          147  0.007193656   -150342.31   -148823.46 
  390700    702.70252   -13.617042      2204118          147  0.007193656   -150370.99   -148707.86 
  390800    709.93563    107.60313      2204118          147  0.007193656   -150321.11   -148640.86 
  390900    693.56489   -160.60569      2204118          147  0.007193656   -150243.17   -148601.66 
  391000    709.58695    25.189636      2204118          147  0.007193656   -150246.52   -148567.09 
  391100     704.7581   -12.277252      2204118          147  0.007193656    -150248.3    -148580.3 
  391200    681.18782    19.764883      2204118          147  0.007193656   -150301.46   -148689.25 
  391300     700.5934   -181.24038      2204118          147  0.007193656   -150397.23   -148739.09 
  391400     678.7206    96.966629      2204118          147  0.007193656   -150303.87    -148697.5 
  391500     699.9528    33.935344      2204118          147  0.007193656   -150280.42   -148623.79 
  391600    740.00248   -82.174308      2204118          147  0.007193656   -150354.42   -148603.01 
  391700    695.71655   -53.812025      2204118          147  0.007193656   -150252.13   -148605.53 
  391800    719.63351   -132.88208      2204118          147  0.007193656   -150326.68   -148623.48 
  391900    711.06909   -104.16151      2204118          147  0.007193656   -150342.73   -148659.79 
  392000    670.09712   -108.77423      2204118          147  0.007193656   -150300.21   -148714.25 
  392100    699.37019   -89.856053      2204118          147  0.007193656   -150434.77   -148779.52 
  392200    692.45465    58.646038      2204118          147  0.007193656   -150441.11   -148802.23 
  392300    711.99136    75.340366      2204118          147  0.007193656   -150356.77   -148671.66 
  392400    713.29094    128.66134      2204118          147  0.007193656   -150309.75   -148621.55 
  392500    716.48713    43.030928      2204118          147  0.007193656   -150308.36    -148612.6 
  392600    701.53784   -190.49055      2204118          147  0.007193656   -150293.06   -148632.69 
  392700    689.01899    41.115919      2204118          147  0.007193656   -150309.04    -148678.3 
  392800    693.73355    22.182689      2204118          147  0.007193656   -150393.37   -148751.46 
  392900    684.86007    51.526937      2204118          147  0.007193656   -150356.23   -148735.33 
  393000    693.66881   -91.173333      2204118          147  0.007193656   -150254.95    -148613.2 
  393100    698.39099   -84.317511      2204118          147  0.007193656   -150241.42    -148588.5 
  393200      679.196   -12.684985      2204118          147  0.007193656   -150212.38   -148604.88 
  393300    712.42425    87.202685      2204118          147  0.007193656   -150323.06   -148636.92 
  393400    675.12154   -9.5777839      2204118          147  0.007193656   -150331.92   -148734.07 
  393500    654.51748   -66.522023      2204118          147  0.007193656   -150315.59   -148766.51 
  393600    669.25577    41.926667      2204118          147  0.007193656    -150289.3   -148705.33 
  393700    705.98189   -115.70826      2204118          147  0.007193656   -150330.33   -148659.44 
  393800    702.92078   -14.103838      2204118          147  0.007193656   -150292.41   -148628.76 
  393900    703.17935   -115.21837      2204118          147  0.007193656   -150261.93   -148597.67 
  394000    705.04522     4.675614      2204118          147  0.007193656   -150234.43   -148565.76 
  394100    705.37667   -118.12594      2204118          147  0.007193656   -150210.94   -148541.48 
  394200    713.75569    156.38901      2204118          147  0.007193656   -150283.02   -148593.73 
  394300    681.06127   -13.211284      2204118          147  0.007193656    -150293.4   -148681.49 
  394400    652.42077   -11.758436      2204118          147  0.007193656   -150258.98   -148714.85 
  394500    714.03755   -86.159652      2204118          147  0.007193656   -150376.49   -148686.53 
  394600    726.63521    17.520224      2204118          147  0.007193656   -150263.94   -148544.16 
  394700    731.73514   -1.6810904      2204118          147  0.007193656   -150266.19   -148534.34 
  394800    701.22878    32.213675      2204118          147  0.007193656   -150264.29   -148604.65 
  394900    651.69137   -106.56632      2204118          147  0.007193656   -150203.17   -148660.77 
  395000    714.58825    -42.58766      2204118          147  0.007193656   -150351.84   -148660.58 
  395100    704.29347    116.09932      2204118          147  0.007193656   -150311.62   -148644.73 
  395200    712.94604    169.60684      2204118          147  0.007193656   -150326.42   -148639.05 
  395300    708.48306    -20.97163      2204118          147  0.007193656   -150327.99   -148651.18 
  395400    710.36704    82.406125      2204118          147  0.007193656   -150337.21   -148655.94 
  395500    718.76093   -84.952969      2204118          147  0.007193656   -150276.18   -148575.04 
  395600    733.02867    -33.72557      2204118          147  0.007193656   -150230.18   -148495.27 
  395700    709.60002   -42.332205      2204118          147  0.007193656   -150232.37   -148552.91 
  395800     712.6303    72.132186      2204118          147  0.007193656   -150297.32    -148610.7 
  395900     713.5679    108.72451      2204118          147  0.007193656   -150323.02   -148634.17 
  396000    695.30226    21.702209      2204118          147  0.007193656    -150298.5   -148652.89 
  396100    701.68851   -1.9567133      2204118          147  0.007193656    -150292.3   -148631.57 
  396200    750.04157   -7.2873223      2204118          147  0.007193656   -150295.57    -148520.4 
  396300    731.33909    7.0188073      2204118          147  0.007193656   -150215.03   -148484.12 
  396400    708.16939    46.260518      2204118          147  0.007193656   -150242.29   -148566.22 
  396500    701.89373    9.4014824      2204118          147  0.007193656    -150291.7   -148630.48 
  396600    693.73074    22.710401      2204118          147  0.007193656    -150282.9      -148641 
  396700    657.63681    72.806164      2204118          147  0.007193656   -150204.08   -148647.61 
  396800    711.76157   -50.790075      2204118          147  0.007193656   -150243.04   -148558.46 
  396900    745.04606    21.615123      2204118          147  0.007193656   -150229.74   -148466.39 
  397000    720.26043   -94.671759      2204118          147  0.007193656    -150205.6   -148500.92 
  397100    702.82389   -60.375218      2204118          147  0.007193656   -150309.28   -148645.87 
  397200    691.02656   -179.07227      2204118          147  0.007193656   -150314.41   -148678.91 
  397300    737.01632    228.24836      2204118          147  0.007193656   -150375.16   -148630.81 
  397400    698.58157    62.910611      2204118          147  0.007193656   -150241.15   -148587.77 
  397500     706.9276    1.6170998      2204118          147  0.007193656   -150236.41   -148563.28 
  397600    690.36944   -43.373725      2204118          147  0.007193656   -150264.52   -148630.58 
  397700    693.94401    32.483563      2204118          147  0.007193656   -150339.12   -148696.72 
  397800    668.75117    166.23998      2204118          147  0.007193656   -150312.69   -148729.91 
  397900    736.39827    86.287449      2204118          147  0.007193656    -150401.5   -148658.62 
  398000    743.18803   -41.136289      2204118          147  0.007193656   -150315.32   -148556.37 
  398100    706.38352   -11.751494      2204118          147  0.007193656    -150232.1   -148560.26 
  398200    708.91064   -13.970983      2204118          147  0.007193656   -150286.28   -148608.46 
  398300    689.91205    34.950662      2204118          147  0.007193656   -150315.03   -148682.17 
  398400     681.9804   -32.469505      2204118          147  0.007193656   -150311.05   -148696.96 
  398500    692.39853    113.49827      2204118          147  0.007193656   -150303.62   -148664.87 
  398600    737.87032   -84.726465      2204118          147  0.007193656   -150338.34   -148591.98 
  398700    714.66035     152.8189      2204118          147  0.007193656    -150251.4   -148559.96 
  398800     699.2764    60.063483      2204118          147  0.007193656   -150335.81   -148680.79 
  398900    675.72171    70.231478      2204118          147  0.007193656   -150347.08   -148747.81 
  399000    688.72117   -107.42374      2204118          147  0.007193656   -150322.63   -148692.59 
  399100    702.69869   -65.679357      2204118          147  0.007193656   -150283.43   -148620.31 
  399200    701.48306    123.68912      2204118          147  0.007193656   -150267.45    -148607.2 
  399300     699.1284    23.779605      2204118          147  0.007193656   -150251.77    -148597.1 
  399400    697.98537   -80.018378      2204118          147  0.007193656   -150233.22   -148581.25 
  399500    699.77009   -96.256434      2204118          147  0.007193656   -150294.33   -148638.14 
  399600    716.55066   -14.097051      2204118          147  0.007193656   -150398.17   -148702.26 
  399700    679.45822    27.658526      2204118          147  0.007193656   -150311.43   -148703.32 
  399800     715.8899    -232.3463      2204118          147  0.007193656   -150336.48   -148642.13 
  399900    705.64853    5.0791242      2204118          147  0.007193656   -150203.52   -148533.42 
  400000    748.03103    162.51119      2204118          147  0.007193656   -150286.93   -148516.52 
  400057    695.85685    70.713081      2204118          147  0.007193656   -150212.15   -148565.22 
Loop time of 4579.75 on 16 procs for 400000 steps with 795 atoms

Performance: 1.887 ns/day, 12.722 hours/ns, 87.341 timesteps/s
100.0% CPU use with 16 MPI tasks x no OpenMP threads

MPI task timing breakdown:
Section |  min time  |  avg time  |  max time  |%varavg| %total
---------------------------------------------------------------
Pair    | 0.15984    | 1135.6     | 3735       |4107.5 | 24.80
Neigh   | 0.018449   | 2.4674     | 5.1581     | 156.0 |  0.05
Comm    | 0.41255    | 649.48     | 2553.3     |3677.0 | 14.18
Output  | 0.31211    | 0.31672    | 0.36243    |   2.1 |  0.01
Modify  | 823.11     | 2791.3     | 4578.5     |3399.5 | 60.95
Other   |            | 0.5488     |            |       |  0.01

Nlocal:        49.6875 ave         209 max           0 min
Histogram: 12 0 0 0 0 0 0 0 0 4
Nghost:        160.312 ave         431 max           0 min
Histogram: 8 0 0 0 0 4 0 0 0 4
Neighs:        3058.44 ave       12855 max           0 min
Histogram: 12 0 0 0 0 0 0 0 0 4

Total # of neighbors = 48935
Ave neighs/atom = 61.553459
Neighbor list builds = 9914
Dangerous builds = 0

write_data graphene_single_layer_ReaxFF_795_C_temp_700K.data
System init for write_data ...
Total wall time: 1:16:23
