LAMMPS data file via write_data, version 29 Sep 2021, timestep = 400057

795 atoms
1 atom types

-51 96 xlo xhi
-51 96 ylo yhi
-51 51 zlo zhi

Masses

1 12.0107

Atoms # charge

1 1 1.9251998070735077e-06 -0.23285167490753828 -0.7064630878962066 0 0 0 0
2 1 3.013387168179088e-07 0.4124569973671657 0.5191085556737479 0 0 0 0
3 1 2.0125897492000167e-06 1.9201105916670427 0.6271539731472405 0 0 0 0
4 1 -3.910448509669706e-06 2.6870536985519284 -0.5566372750851717 0 0 0 0
5 1 4.267957652265286e-06 3.832445224989113 -0.221017010393765 0 0 0 0
6 1 -7.100221242624383e-06 4.671174668722393 1.0075208771791233 0 0 0 0
19 1 6.495441914618205e-06 6.082651151590985 0.8377571285321253 0 0 0 0
20 1 -5.7890544912786446e-06 6.952395878285697 -0.31837256830250515 0 0 0 0
21 1 5.828292312909378e-06 8.096997057555498 -0.11470928628198677 0 0 0 0
22 1 -6.826359297697204e-06 9.065899417409922 0.9171266145077924 0 0 0 0
23 1 2.893242547655911e-06 10.464638252261599 0.8380004920705671 0 0 0 0
24 1 -1.8192361373736698e-06 11.337948442746917 -0.32038807817130055 0 0 0 0
37 1 4.5189704138554054e-06 12.479534284461488 -0.09281058074772885 0 0 0 0
38 1 -3.1796482475449084e-06 13.491714039032583 0.9299869847629275 0 0 0 0
39 1 -1.2200472239085047e-06 14.940184937143986 0.9526038056932525 0 0 0 0
40 1 4.099342716251675e-06 15.878439619801608 -0.2774418446961921 0 0 0 0
41 1 -2.7831444575632247e-06 17.040371894347235 -0.46003750830927614 0 0 0 0
52 1 1.0596794344761712e-05 17.611576794563 0.8669552393501206 0 0 0 0
53 1 -1.3128843266992096e-05 19.098055113035524 0.926856739838387 0 0 0 0
54 1 5.391105664692697e-06 20.093692813874714 -0.11721442001069701 0 0 0 0
55 1 -3.707879502518052e-06 21.288439604504813 -0.31645821812728653 0 0 0 0
56 1 1.5073953064798085e-06 22.02636873489476 0.8833762331268894 0 0 0 0
7 1 -4.079934325385004e-07 -0.360073564219299 1.8372223322825725 0 0 0 0
8 1 -1.0723055309923984e-07 0.27739516274431336 3.1673397603680806 0 0 0 0
13 1 1.999709948657946e-06 -0.4602853603379899 4.448759010700707 0 0 0 0
14 1 -7.682241614532376e-07 0.21639690119434257 5.770524475766433 0 0 0 0
15 1 4.686021019675857e-06 1.7184873968608239 5.841034944007249 0 0 0 0
9 1 3.3530224707867262e-09 1.7458678176807456 3.2920453099554767 0 0 0 0
10 1 -4.3216824757580374e-06 2.431397680045033 2.0427470258479117 0 0 0 0
11 1 5.519341144167439e-06 3.846388403456077 2.2161378755266536 0 0 0 0
12 1 -6.776995931094543e-06 4.685374199271794 3.3921571436620517 0 0 0 0
16 1 -4.83626720580721e-07 2.444831877069449 4.6009983043525855 0 0 0 0
17 1 1.1567306845636227e-06 3.857377826430599 4.572705944541286 0 0 0 0
18 1 4.0605279977290465e-07 4.605311526550551 5.874090616277698 0 0 0 0
25 1 3.0706335269539697e-06 6.165738599976418 3.404712999919069 0 0 0 0
31 1 -2.8853689259741855e-06 6.023321153137022 5.918112381503461 0 0 0 0
26 1 -3.94354471600078e-06 6.850057178016591 2.1706623411299373 0 0 0 0
32 1 2.1844682882021793e-07 6.808478585318426 4.655997370971483 0 0 0 0
27 1 2.6494666377566145e-06 8.275664157511747 2.1891985049435903 0 0 0 0
28 1 3.883292645799619e-06 9.082566424707181 3.40871478964704 0 0 0 0
29 1 -6.279880367526802e-06 10.529253169482692 3.3612403317866546 0 0 0 0
30 1 1.7533849082512765e-06 11.27200495925967 2.128665814333385 0 0 0 0
33 1 -4.753445267735579e-06 8.255040144020251 4.6140499092718255 0 0 0 0
34 1 7.3469204607337635e-06 8.945939839454763 5.887075545202687 0 0 0 0
35 1 -8.335467505574123e-06 10.415053483995921 5.894638810586479 0 0 0 0
36 1 5.122064780538338e-06 11.176167371897543 4.675998897176807 0 0 0 0
42 1 -7.405512453990959e-07 12.699898354531662 2.163557115225963 0 0 0 0
43 1 6.358303003640986e-06 13.34382581460765 3.4121976415676043 0 0 0 0
44 1 -5.715163903539933e-06 14.778751879823144 3.516277906909333 0 0 0 0
45 1 6.740788266724335e-06 15.480074718808861 2.246931103137168 0 0 0 0
46 1 -5.901319709310238e-06 16.9260882348584 2.163338178594952 0 0 0 0
47 1 -5.752328033493959e-06 12.623164831327404 4.737685301359102 0 0 0 0
48 1 4.420689838739722e-06 13.382559364999421 5.950278269871043 0 0 0 0
49 1 -3.3059555821987607e-06 14.819399410647447 5.95714700884449 0 0 0 0
50 1 2.303222738787858e-06 15.549661385605035 4.758336328252543 0 0 0 0
51 1 -4.929856936973509e-06 16.970290044306903 4.683271383996814 0 0 0 0
58 1 7.2943848780787635e-06 17.65401688106049 3.3578760397720746 0 0 0 0
59 1 -9.572613295635857e-06 19.082035995716428 3.3978338037674902 0 0 0 0
60 1 1.0824113083302694e-05 19.81136857423112 2.1378645143614596 0 0 0 0
61 1 -7.448105091588386e-06 21.276394595554258 2.138419088944386 0 0 0 0
62 1 4.35944475492972e-06 21.92855036220492 3.3742590275334905 0 0 0 0
64 1 3.5072947111858266e-07 17.676389707132888 5.908736934155436 0 0 0 0
65 1 -6.849551297247181e-06 19.15302148199472 5.911840661111931 0 0 0 0
66 1 1.0237199915517914e-05 19.794652473137926 4.646881539112073 0 0 0 0
67 1 -9.917909903199573e-06 21.262398531272247 4.649119181942063 0 0 0 0
68 1 7.793421789019372e-06 21.992700948803503 5.862891583737181 0 0 0 0
130 1 5.869592849261362e-07 -0.5223043303941326 7.013220350241116 0 0 0 0
131 1 2.9561113639216957e-06 0.3277284653682138 8.321635355442208 0 0 0 0
136 1 1.5817181112098844e-07 -0.4203225579470863 9.588850108629673 0 0 0 0
137 1 -3.452054641188418e-06 0.19051396959036385 10.974227688676162 0 0 0 0
132 1 2.012891141128792e-07 1.7894157873113774 8.358423136156967 0 0 0 0
133 1 -4.419810068267971e-06 2.433224765245662 7.080345916948092 0 0 0 0
134 1 3.311121688810703e-06 3.9130305386664848 7.10882689951473 0 0 0 0
135 1 -4.265914448908781e-07 4.589251351116078 8.37185194730417 0 0 0 0
138 1 2.5855695866411343e-06 1.7598414597352352 10.926664592449017 0 0 0 0
139 1 3.2732790537781664e-07 2.404623708924691 9.694800837872398 0 0 0 0
140 1 -1.8707230413084197e-06 3.872380886525234 9.639901225367977 0 0 0 0
141 1 1.4352214654442252e-06 4.606419004873952 10.94264244233281 0 0 0 0
145 1 -1.8335551726575416e-06 6.038456372839211 8.360861135010122 0 0 0 0
151 1 -7.543854848322817e-06 6.055511004672775 10.8630562681825 0 0 0 0
152 1 3.944761422923493e-06 6.771590944821749 9.578555521065788 0 0 0 0
146 1 3.751934929061007e-06 6.79179070073368 7.091783392149827 0 0 0 0
147 1 -7.618963477853957e-06 8.245363440227178 7.1269517411197265 0 0 0 0
148 1 1.0533090355542563e-05 8.980076876059213 8.377454055842572 0 0 0 0
149 1 -1.2832956581387833e-05 10.455175680178177 8.412041309876434 0 0 0 0
150 1 1.2719300776543874e-05 11.124204042996494 7.134467066943564 0 0 0 0
153 1 -6.820980372093666e-06 8.214500028245086 9.548144145195211 0 0 0 0
154 1 8.575823146797501e-06 8.96650047738233 10.802744727362942 0 0 0 0
155 1 -8.368997200719486e-06 10.420915196209375 10.877985214877585 0 0 0 0
156 1 9.729814754812216e-06 11.204953502701517 9.65214603488798 0 0 0 0
160 1 -9.502397346351776e-06 12.573990214426747 7.115519019023427 0 0 0 0
161 1 7.823330342972279e-06 13.352961903359072 8.371312298124861 0 0 0 0
162 1 -3.4366577138580934e-06 14.816692828658601 8.467469313166301 0 0 0 0
163 1 -1.9206450198316904e-07 15.611594743906572 7.2168386881208235 0 0 0 0
164 1 1.2942933854537264e-06 17.053478490811244 7.182001566757839 0 0 0 0
165 1 -9.863938081000612e-06 12.669098578501808 9.56701490695622 0 0 0 0
166 1 7.847574191109652e-06 13.284764102813872 10.904030767023597 0 0 0 0
167 1 -4.473641564292641e-06 14.737987799598422 10.955855064802781 0 0 0 0
168 1 -1.8023542449341345e-06 15.52510913448376 9.693216837711436 0 0 0 0
169 1 2.6296447956930535e-06 16.949467760627947 9.707832996276961 0 0 0 0
173 1 -1.183711667816778e-06 17.740821232111283 8.464965247439538 0 0 0 0
174 1 1.3975498624196891e-06 19.137779090375965 8.440281283211448 0 0 0 0
175 1 7.767541472802897e-07 19.873731554321786 7.199491084122855 0 0 0 0
176 1 -3.3674730356356153e-06 21.290688449163248 7.135746910066554 0 0 0 0
177 1 1.9276707154403105e-06 22.004057742863555 8.420057043325384 0 0 0 0
179 1 -3.491072174191534e-07 17.63997963010841 10.952701640387922 0 0 0 0
180 1 -3.834479133157931e-06 19.132052438236 10.96307255493842 0 0 0 0
181 1 1.6014513165990563e-06 19.854198583502363 9.732273679352904 0 0 0 0
182 1 -2.5456551260572002e-06 21.30307162976335 9.699506295352155 0 0 0 0
183 1 3.1640851544390003e-06 21.952589842188182 11.000189227846658 0 0 0 0
142 1 2.731234129721427e-06 -0.4917022036947688 12.226933176440475 0 0 0 0
237 1 -3.488529303038307e-06 0.2894706344618854 13.579170009355964 0 0 0 0
240 1 4.254755555835321e-06 -0.03686960411766381 14.802944949430016 0 0 0 0
241 1 -8.26730927157987e-06 0.23461382411225656 16.15765235855209 0 0 0 0
144 1 1.510716423000491e-07 3.904686210405103 12.148591320716285 0 0 0 0
143 1 -2.2751627848302536e-06 2.453713466037661 12.142676215887072 0 0 0 0
238 1 1.312101980063124e-06 1.8213530900915917 13.427251435527886 0 0 0 0
239 1 9.098027971901623e-07 4.636847138895967 13.422800332572088 0 0 0 0
242 1 8.435615240467292e-06 1.7083061983024832 15.965137569753402 0 0 0 0
243 1 -3.8027400748527618e-06 2.445911825652136 14.677279408688626 0 0 0 0
244 1 -7.132074596460924e-07 3.9665543305957303 14.695064265718068 0 0 0 0
245 1 1.7817889253202157e-06 4.687878245440205 15.887043073197143 0 0 0 0
252 1 -4.859027141805583e-06 6.059158579951887 13.39239229267865 0 0 0 0
255 1 -3.821175479992722e-06 6.15429764243265 15.821058828055271 0 0 0 0
250 1 4.289715934080451e-06 3.9217814508665887 17.095399113050245 0 0 0 0
249 1 -7.98827665506735e-06 2.5064116517106068 17.179944072380742 0 0 0 0
157 1 9.6310477670572e-06 6.763089341758195 12.06235549063588 0 0 0 0
256 1 7.920570337563437e-06 6.839967761834694 14.564398810552321 0 0 0 0
262 1 5.73889654112425e-06 6.829361483903094 17.09522460735498 0 0 0 0
158 1 -1.2225681766647734e-05 8.20746784578685 12.039442749896436 0 0 0 0
159 1 1.1201457730043718e-05 11.124029360831663 12.08808775329372 0 0 0 0
253 1 1.2022875957716506e-05 8.946273508126994 13.265828565806084 0 0 0 0
254 1 -9.354432537730939e-06 10.326920497338161 13.356319127560898 0 0 0 0
257 1 -1.2544046478157878e-05 8.250220952560996 14.585593201029848 0 0 0 0
258 1 1.1815325002551003e-05 8.92280522324587 15.852095660767375 0 0 0 0
259 1 -1.162005914686487e-05 10.404363365634152 15.908800331472573 0 0 0 0
260 1 7.948161532253528e-06 11.005911035288504 14.624005242363474 0 0 0 0
263 1 -1.0820309552926621e-05 8.287531088210885 17.130346932407896 0 0 0 0
266 1 1.0645823813625055e-05 11.126780678046083 17.1732147422572 0 0 0 0
170 1 -1.0842764183796594e-05 12.560155419135857 12.111064858018976 0 0 0 0
172 1 -1.0401549801683507e-06 16.83042705676989 12.1546524631117 0 0 0 0
171 1 3.155640858891473e-06 15.390045615503459 12.20601960103214 0 0 0 0
267 1 9.514765016607751e-06 13.206293266755111 13.44828683458504 0 0 0 0
268 1 -4.776693623954886e-06 14.618878519385857 13.439950445461273 0 0 0 0
269 1 -8.07494378898821e-06 12.469567497854586 14.65575254728543 0 0 0 0
270 1 4.923121834699007e-06 13.212846135922161 15.906530372343155 0 0 0 0
271 1 -5.287328153510962e-06 14.69603558522416 15.967157669765768 0 0 0 0
272 1 4.92007986686166e-06 15.343615591020558 14.718973092675368 0 0 0 0
273 1 -5.83812694735647e-06 16.802867487900688 14.691226544792276 0 0 0 0
277 1 4.42496132382203e-06 15.528913667692175 17.2000752894107 0 0 0 0
278 1 -4.701839104725991e-06 16.91020545348752 17.228176226247367 0 0 0 0
274 1 -9.914132790313224e-06 12.523015761063158 17.19492788704577 0 0 0 0
186 1 -4.512948274817963e-06 21.211122507013783 12.203751021543283 0 0 0 0
185 1 2.699147162749105e-06 19.756569188451206 12.193318861155749 0 0 0 0
279 1 3.077193228791242e-06 17.50198845395966 13.46405652116193 0 0 0 0
280 1 -1.16396185667611e-06 18.961878914813077 13.480445361783946 0 0 0 0
281 1 4.8990697114267845e-06 22.001067565528814 13.439977071693763 0 0 0 0
283 1 5.5846811732318535e-06 17.608934754383913 15.899674158328608 0 0 0 0
284 1 -5.6018576200939085e-06 18.982063794430253 15.891363865358084 0 0 0 0
285 1 3.676157766585586e-06 19.772891212544405 14.671045334006822 0 0 0 0
286 1 -4.5078018056643465e-06 21.210014686840267 14.678212483959525 0 0 0 0
287 1 7.088888747515398e-06 21.933738608305827 15.921528791180705 0 0 0 0
291 1 4.176900827247698e-06 19.7558759283175 17.158216472685424 0 0 0 0
292 1 -6.470545899910085e-06 21.177369990209918 17.17862244301915 0 0 0 0
246 1 1.4828429355379091e-06 -0.5309114287686296 17.38811229448254 0 0 0 0
247 1 8.105210096663595e-07 0.36363997034583023 18.61572563394992 0 0 0 0
345 1 -3.7761240531952733e-06 -1.1003759075771182 18.614626899060223 0 0 0 0
346 1 3.001092455101606e-06 -0.43162067375412255 19.90837194568411 0 0 0 0
351 1 -7.994570045286031e-06 0.37657988684356203 20.989948959673246 0 0 0 0
352 1 7.484581012864866e-06 0.029926922764282847 22.471475301356115 0 0 0 0
248 1 4.157826982223445e-06 1.835685847611157 18.4016985202177 0 0 0 0
251 1 -1.620107048537489e-06 4.731507185593386 18.312041985842722 0 0 0 0
261 1 -2.0352016476404833e-06 6.1964426250197615 18.389469411595442 0 0 0 0
347 1 9.25732296169074e-06 1.856724811564994 20.806676710551855 0 0 0 0
348 1 -6.832989721435034e-06 2.620434788656075 19.58399103870018 0 0 0 0
349 1 4.502989258983736e-06 4.078089052731893 19.606657277782546 0 0 0 0
350 1 -2.2703219956093923e-06 4.851935017263253 20.879358409051854 0 0 0 0
354 1 -6.871654175136244e-06 2.5755919553462143 22.042931528101363 0 0 0 0
355 1 4.757823382009474e-06 4.010701437741816 22.04536392918921 0 0 0 0
360 1 -1.368618142316702e-06 6.309109579095639 20.862679551006764 0 0 0 0
361 1 4.61652028842241e-06 6.9915804919410265 19.58650947597098 0 0 0 0
367 1 5.416372704791783e-06 6.964413755418231 22.14467782930971 0 0 0 0
264 1 1.250704591140156e-05 9.011810453704998 18.39177825750127 0 0 0 0
265 1 -9.367164897917946e-06 10.482742192181133 18.47577691262501 0 0 0 0
362 1 -1.0859885448549766e-05 8.440687570802709 19.66429691067541 0 0 0 0
363 1 1.3606569926487289e-05 9.161314152815883 20.96676948684331 0 0 0 0
364 1 -1.2445321329102033e-05 10.556702446984367 20.94957774454139 0 0 0 0
365 1 7.527021537466483e-06 11.271170518930715 19.66232890153655 0 0 0 0
368 1 -1.0984647702924621e-05 8.374510295285143 22.128829727303007 0 0 0 0
371 1 1.0035885651453469e-05 11.256792046950624 22.220495367689452 0 0 0 0
275 1 9.623177404466388e-06 13.369911340241075 18.39130733802319 0 0 0 0
276 1 -5.641724646260338e-06 14.797544386173495 18.49177116237919 0 0 0 0
375 1 -6.063891968367818e-06 12.7285793437949 19.664889852761732 0 0 0 0
376 1 3.6058811837894056e-06 13.425755470369532 20.926428660099585 0 0 0 0
377 1 -2.90062875963476e-06 14.896591021021262 21.002443055741217 0 0 0 0
378 1 3.960272744948923e-06 15.582101544205091 19.72692499385752 0 0 0 0
379 1 -2.6535468632543635e-06 16.99909234610893 19.739042167204595 0 0 0 0
380 1 -5.372849999234208e-06 12.695727435848656 22.202474825349768 0 0 0 0
383 1 1.8642302649918285e-06 15.630892019057649 22.242074052411795 0 0 0 0
384 1 -1.6050198281616912e-06 17.145142214437872 22.189549686199978 0 0 0 0
397 1 -3.1880550412019537e-06 21.46183599196059 22.10432281848233 0 0 0 0
289 1 2.5353388077992145e-06 17.680260237726376 18.47001559895406 0 0 0 0
290 1 -3.3010625592883036e-06 19.10547766808443 18.426233546677913 0 0 0 0
293 1 4.8438168657599645e-06 21.984523201165533 18.347910070339886 0 0 0 0
388 1 3.1159908730135633e-06 17.804318229379163 20.944744458207158 0 0 0 0
389 1 -3.1372683683070224e-06 19.275573283331283 20.95268474740813 0 0 0 0
390 1 4.013175107855926e-06 19.907380488318275 19.678289000635306 0 0 0 0
391 1 -4.362110377902073e-06 21.351079781371286 19.656426416369495 0 0 0 0
392 1 4.0698052032606125e-06 22.146957570262543 20.837279850947457 0 0 0 0
396 1 1.7593762970322113e-06 19.985263798766074 22.23320977852438 0 0 0 0
357 1 -5.237753667577949e-06 0.3507124034353371 23.626507898217543 0 0 0 0
452 1 2.028238227411161e-06 0.2390225732352012 25.492323842718513 0 0 0 0
455 1 -6.566997555745857e-07 -0.0860265740683038 26.649221634359655 0 0 0 0
353 1 4.168144904321755e-06 1.8695749477032944 23.301339588244247 0 0 0 0
356 1 -8.379582227061033e-07 4.765777866782287 23.316008281058387 0 0 0 0
358 1 -5.63149018931175e-07 2.5886769044597426 24.602322072055575 0 0 0 0
359 1 2.364566141062341e-06 4.038550342422312 24.608885862069837 0 0 0 0
366 1 -4.284583079598725e-06 6.175323218124857 23.412597938556683 0 0 0 0
453 1 2.1137880677063459e-07 1.8021037957911799 25.759893492014292 0 0 0 0
454 1 -2.454378901631249e-06 4.718903932989797 25.85572983086012 0 0 0 0
458 1 2.3001144289144793e-06 2.5092558220665673 27.021605831461997 0 0 0 0
459 1 -9.651551093267652e-07 3.9570886234070577 27.07635976700163 0 0 0 0
467 1 4.637240084079397e-07 6.199566246200335 25.88953785725988 0 0 0 0
471 1 3.8655172816745575e-06 6.857396584257317 27.228248419351008 0 0 0 0
372 1 4.006112631481373e-06 6.858010845998474 24.67974767182967 0 0 0 0
369 1 1.0615203188228672e-05 9.032781309312599 23.487206203538634 0 0 0 0
370 1 -1.084797596347803e-05 10.494102986176456 23.44131376170152 0 0 0 0
373 1 -1.0195384369832139e-05 8.337409541136969 24.68799065372455 0 0 0 0
374 1 7.277425493903977e-06 11.250874870004672 24.63017257215079 0 0 0 0
468 1 1.1243672402683202e-05 9.081056730690742 25.90588285176767 0 0 0 0
469 1 -7.304062542436152e-06 10.502824619898444 25.883532125681867 0 0 0 0
472 1 -6.776306024303125e-06 8.278460187064326 27.13980935990903 0 0 0 0
475 1 2.8999787548833478e-06 11.187017893928294 27.155216882745425 0 0 0 0
381 1 1.8717736679149666e-06 13.41394094590331 23.422389218776576 0 0 0 0
382 1 -1.0540332427699806e-06 14.871961419987365 23.452145358684795 0 0 0 0
385 1 -1.6191231822851315e-06 12.69852636122053 24.683923460354617 0 0 0 0
386 1 8.544075271940677e-07 15.572115089160128 24.7961192153121 0 0 0 0
387 1 -1.738688841623759e-06 17.078051725123977 24.68759710647594 0 0 0 0
482 1 1.768080233749414e-07 13.370933553287292 25.95325871343311 0 0 0 0
483 1 1.634039345721483e-06 14.839730602120309 25.957824969845227 0 0 0 0
484 1 1.930677183195617e-07 12.613618873125874 27.14679586276826 0 0 0 0
487 1 -1.297254110091406e-06 15.599563841590115 27.231589448017928 0 0 0 0
488 1 5.454169486746041e-07 17.029505966631817 27.27503558535879 0 0 0 0
394 1 1.6298526685359915e-06 17.81433196211366 23.433356713226633 0 0 0 0
395 1 -2.952633641965796e-06 19.293473239524406 23.496271152497417 0 0 0 0
398 1 4.851581637141389e-06 22.121532392470854 23.37720230412231 0 0 0 0
400 1 3.0641478678747336e-06 19.950957466058213 24.765972519042087 0 0 0 0
401 1 -3.7787241324513388e-06 21.432269279722668 24.65636610290337 0 0 0 0
494 1 2.9552939095414676e-06 17.70842136524262 25.942820492306616 0 0 0 0
495 1 -3.9148976275840686e-06 19.1554693222559 25.942473677069398 0 0 0 0
496 1 1.8493268765587545e-06 22.156342400830365 25.916531674732845 0 0 0 0
500 1 1.1810602564554795e-06 19.971462605686227 27.110422526409177 0 0 0 0
501 1 -1.1220253216884246e-06 21.362832083515208 27.144846730058173 0 0 0 0
456 1 2.455369714320088e-06 0.34911383722472145 28.056377686777964 0 0 0 0
461 1 9.513129633764716e-07 -0.254050162258678 29.363962735490766 0 0 0 0
462 1 -3.876425691877461e-06 0.3705909157283119 30.76707378882283 0 0 0 0
560 1 -8.914775907753469e-07 -0.3272729832774036 32.0796225265749 0 0 0 0
457 1 -1.3125310107525712e-07 1.7737234935757615 28.256732660407085 0 0 0 0
460 1 3.76104216780887e-06 4.637578912518914 28.377920628690458 0 0 0 0
463 1 3.7327835867538572e-06 1.8311080503748656 30.851714028374985 0 0 0 0
464 1 -2.795950262104996e-06 2.4964270702263676 29.5786973308706 0 0 0 0
465 1 1.9155711128218678e-06 3.9170497697091027 29.633333098213285 0 0 0 0
466 1 -1.1914474045554568e-06 4.722042667383097 30.8929094775074 0 0 0 0
470 1 -9.334872923746906e-07 6.080341244888501 28.354189262816835 0 0 0 0
476 1 -3.436692451168344e-06 6.19643346820962 30.85589109367214 0 0 0 0
563 1 -2.3142576088611144e-06 2.5906848610909377 32.15332423863862 0 0 0 0
564 1 -6.255690709125461e-07 4.0670549555031945 32.124873785047726 0 0 0 0
579 1 1.6831218172669304e-07 6.939371302787386 32.07071779109856 0 0 0 0
477 1 1.3234289165456325e-06 6.895692663885491 29.633227449678387 0 0 0 0
473 1 2.886113539067592e-06 9.04047309655528 28.36908566673478 0 0 0 0
474 1 -1.6505327138857662e-06 10.478273708695134 28.409016214510313 0 0 0 0
478 1 -1.0742206244390706e-06 8.29930214935394 29.614376877289132 0 0 0 0
479 1 7.416618724095936e-07 9.070921118928382 30.884887184397083 0 0 0 0
480 1 1.5651531241264727e-06 10.504880066669116 30.918355428965327 0 0 0 0
481 1 7.965759710598652e-07 11.264874946615143 29.62332649750062 0 0 0 0
580 1 -2.517414691885489e-06 8.367043294613108 32.12171969686297 0 0 0 0
583 1 -3.5952144139053677e-06 11.16210101333902 32.17873786386613 0 0 0 0
485 1 -5.829691398784309e-07 13.376720062672018 28.401864576488553 0 0 0 0
486 1 2.9143265204631397e-06 14.793789808306995 28.423979946170167 0 0 0 0
489 1 1.8105268118906448e-06 12.716224275349942 29.717368021084674 0 0 0 0
490 1 -5.73413517575283e-06 13.444913485636599 30.975693035979557 0 0 0 0
491 1 2.800052999338276e-06 14.82603260172095 31.03134273815741 0 0 0 0
492 1 -2.736611982114001e-06 15.532375033571372 29.696270606210714 0 0 0 0
493 1 2.621253442212923e-06 16.903604326482252 29.680244426874367 0 0 0 0
596 1 2.5476577856300975e-06 12.623272890223074 32.17812773746785 0 0 0 0
599 1 -4.113045961894046e-06 15.541253782889697 32.27158743038574 0 0 0 0
600 1 2.2159393931880933e-06 17.02075888366823 32.23344448979871 0 0 0 0
498 1 -4.249111339449385e-07 17.773123824891616 28.447536481468834 0 0 0 0
499 1 3.581727789497835e-07 19.206600946525654 28.38214474215322 0 0 0 0
502 1 1.0699404458663908e-06 22.076631621659253 28.404568157483325 0 0 0 0
504 1 1.65313802723277e-07 17.688198131786496 30.94961215919071 0 0 0 0
505 1 2.5824194460205563e-06 19.131145206604245 30.97244140548825 0 0 0 0
506 1 7.426355495068759e-07 19.841763901549445 29.69268824245285 0 0 0 0
507 1 -9.042114996332673e-08 21.291374329652392 29.614539352821943 0 0 0 0
508 1 2.944796932968785e-07 21.978141496662662 30.904807532190503 0 0 0 0
613 1 -6.16667006403393e-07 19.87289514801899 32.23631147853207 0 0 0 0
614 1 1.49844033847657e-07 21.319642185338733 32.14682609580746 0 0 0 0
561 1 6.036225337451018e-07 0.3507453995638885 33.424549004283584 0 0 0 0
566 1 1.9789742241316244e-06 -0.4100780021672338 34.66869405618786 0 0 0 0
567 1 -1.6163711586032747e-07 0.40707845787788544 35.94322525761569 0 0 0 0
572 1 -1.9926899252620256e-06 -0.41146869320202617 37.18852873400751 0 0 0 0
562 1 -1.2797014884852187e-06 1.89266244973648 33.343255513824666 0 0 0 0
565 1 -2.4972451397528572e-06 4.7718102245487914 33.38889489477413 0 0 0 0
568 1 1.10857237974743e-06 1.8610641420199978 35.89015453126671 0 0 0 0
569 1 -5.879686983956134e-07 2.619963158875522 34.65773839314283 0 0 0 0
570 1 1.808933703106863e-06 4.002517575424151 34.6572336793907 0 0 0 0
571 1 3.2760253393174232e-06 4.699882175267653 35.9438562158778 0 0 0 0
575 1 2.8122865479568437e-06 2.5168822760503384 37.16102515587225 0 0 0 0
576 1 -1.5062562897655285e-07 3.9595656442732423 37.129237827800786 0 0 0 0
578 1 1.587665474596378e-06 6.1756519345442245 33.36389528238647 0 0 0 0
584 1 5.62860509957519e-07 6.1632079386965675 35.943605907557625 0 0 0 0
585 1 1.5916679830321745e-06 6.878834631209398 34.63273737173409 0 0 0 0
591 1 -4.4310656002743976e-07 6.803902452736148 37.221412865123455 0 0 0 0
581 1 8.550113029942574e-07 9.020475625991137 33.39780826458495 0 0 0 0
582 1 4.860809187448578e-07 10.495151313639711 33.451083986005195 0 0 0 0
586 1 1.3259775745039226e-06 8.286914113761307 34.635596020114384 0 0 0 0
587 1 -1.2240110106656599e-06 8.939381016936803 35.96074737062677 0 0 0 0
588 1 -4.0249075459325434e-07 10.401371990234418 35.98975742300427 0 0 0 0
589 1 5.364233652757622e-07 11.112903559679406 34.73509322373837 0 0 0 0
592 1 2.0390581300516741e-07 8.271134905821668 37.216473192303646 0 0 0 0
595 1 1.0834552683913756e-06 11.087193886527784 37.243396454488746 0 0 0 0
597 1 -2.3668519353037265e-06 13.274534537518658 33.47318688401211 0 0 0 0
598 1 1.0306023169870393e-06 14.716381695095425 33.50435969315094 0 0 0 0
601 1 3.5523613428761758e-06 12.536861954740454 34.73038328468196 0 0 0 0
602 1 1.506794803311784e-06 13.294206310348232 35.945343328584066 0 0 0 0
603 1 1.7574691766816808e-06 14.74796798773063 35.95457251090545 0 0 0 0
604 1 -4.2508497169468917e-07 15.47806750118396 34.709045270014116 0 0 0 0
605 1 4.2717054804519705e-06 16.926692982893137 34.73075435242808 0 0 0 0
606 1 -1.3617172321123139e-06 12.579739218522459 37.20249958439843 0 0 0 0
609 1 1.0360872945841537e-06 15.440519184984735 37.18147814503144 0 0 0 0
610 1 1.34203218474932e-06 16.90125850954691 37.147054638154636 0 0 0 0
611 1 -3.5290726838402287e-06 17.70540727091357 33.51694212156414 0 0 0 0
612 1 1.5325853390327215e-06 19.112918399995298 33.485721125977115 0 0 0 0
615 1 -3.305328279017139e-06 22.060148095505337 33.413695479464536 0 0 0 0
617 1 -3.7469447499230424e-06 17.69656545225131 35.95358331808781 0 0 0 0
618 1 4.4708759791844965e-06 19.15193535820987 35.940628507524956 0 0 0 0
619 1 -2.362955522083876e-06 19.92936385069607 34.711492985332775 0 0 0 0
620 1 4.112241949197348e-06 21.363448646248894 34.70453608740261 0 0 0 0
621 1 -8.363730972127392e-06 22.0821812646966 35.97384185613088 0 0 0 0
625 1 -9.308168762239832e-06 19.892182323445812 37.15423135155843 0 0 0 0
626 1 7.478765273120913e-06 21.336621680036266 37.169466249598536 0 0 0 0
701 1 -3.2802520581465267e-06 -3.1147360029971196 42.915027741558184 0 0 0 0
573 1 2.089350704261028e-06 0.21756581003443531 38.552356487088815 0 0 0 0
689 1 -3.752640694382192e-06 -0.650607965397621 39.7431367822726 0 0 0 0
690 1 -2.7931992656153593e-06 0.1939526348904285 40.91756318988206 0 0 0 0
695 1 -5.363317964190983e-07 -1.2180395013675436 41.02821963560006 0 0 0 0
696 1 2.429374450177435e-06 -2.224450950398511 42.045748772312415 0 0 0 0
577 1 -2.4551245334861194e-06 4.608134233739885 38.47898749202741 0 0 0 0
590 1 1.4883115785832568e-06 6.034068800234841 38.45629984956276 0 0 0 0
574 1 -5.624934495289391e-06 1.692848555297986 38.37623099151731 0 0 0 0
691 1 6.303683211611455e-06 1.61232300666218 40.87895642147398 0 0 0 0
692 1 -1.5142908101339891e-06 2.362555748322564 39.66515230399123 0 0 0 0
693 1 -3.7724282311996093e-06 3.8159955954241016 39.661085458784314 0 0 0 0
694 1 3.2466732833857925e-06 4.556502644344699 40.8455333978474 0 0 0 0
698 1 1.1132821402172477e-05 2.378933923892833 42.160575633592536 0 0 0 0
699 1 3.9708462058786476e-06 3.867079471812926 42.1207098134589 0 0 0 0
704 1 -8.946016161096026e-06 6.046724898841529 40.96823952953801 0 0 0 0
710 1 -9.684315409284883e-07 5.939669565673454 43.420603566832824 0 0 0 0
700 1 -6.7900197714548804e-06 4.507640018721378 43.393785909416714 0 0 0 0
697 1 -8.566335396555796e-06 1.9883627057797337 43.469177994677075 0 0 0 0
711 1 -2.6247503984166975e-07 6.741256346932585 42.242384581945245 0 0 0 0
705 1 -2.6130893776565856e-07 6.814952875187842 39.74682378508873 0 0 0 0
593 1 1.6852521545068777e-06 8.941397496896261 38.484875611803304 0 0 0 0
594 1 -2.6268420250871727e-06 10.415514658388696 38.45696994708193 0 0 0 0
706 1 3.782730250562194e-08 8.245329940740238 39.72664540884106 0 0 0 0
707 1 -3.075091206838909e-06 9.048740637759037 40.987694954236396 0 0 0 0
708 1 7.216337408931517e-06 10.468597449297503 40.960803967599965 0 0 0 0
709 1 2.513682775914794e-06 11.157178314049585 39.713188479373265 0 0 0 0
712 1 1.5064793179690728e-06 8.223068588539926 42.187584272181205 0 0 0 0
715 1 -1.5367627189538657e-06 11.101940072204847 42.308998371654354 0 0 0 0
713 1 2.1226286895797974e-06 8.834748640558102 43.46267423030403 0 0 0 0
714 1 1.1415728631142263e-06 10.34124372158046 43.46385542806378 0 0 0 0
608 1 -3.571769781468559e-07 14.763823745087276 38.43499673345314 0 0 0 0
607 1 1.4529136963467582e-06 13.300872935683223 38.42418724758893 0 0 0 0
719 1 -5.625558114959184e-06 12.629804319766087 39.704874394201475 0 0 0 0
720 1 4.486419300182842e-06 13.315940748255576 40.94586283667626 0 0 0 0
721 1 -2.6709556077766927e-06 14.779081802384392 40.92151213800715 0 0 0 0
722 1 -2.6619221775228685e-06 15.476328184252164 39.65907205946079 0 0 0 0
723 1 2.7646725128949168e-06 16.919408372140666 39.605140610481 0 0 0 0
724 1 1.2545995229460566e-05 12.579316506460868 42.17932158953182 0 0 0 0
727 1 -5.268019420391623e-06 15.44553662390411 42.149120740127884 0 0 0 0
728 1 -1.5252555456701788e-06 16.872892221993723 42.162355932965774 0 0 0 0
725 1 -1.02900679470469e-05 13.286238887712175 43.430602415807215 0 0 0 0
726 1 9.439481218839058e-06 14.714133948883427 43.487640408919845 0 0 0 0
624 1 9.043806608273475e-06 19.100782132290984 38.314114832428466 0 0 0 0
627 1 -5.165365229778396e-06 22.093387134818066 38.44798685609406 0 0 0 0
623 1 -6.172650333480245e-06 17.655129214038883 38.31725463995139 0 0 0 0
732 1 -3.4872151788226113e-06 17.57334014289705 40.8674510884634 0 0 0 0
733 1 8.142696567015051e-07 19.055075105904763 40.8136989925647 0 0 0 0
734 1 -5.65373017531734e-06 19.852240352086366 39.60802120632615 0 0 0 0
735 1 9.684343866153688e-06 21.251930805598573 39.6697638099063 0 0 0 0
736 1 -7.963202229004096e-06 21.974052802681076 40.9489780740561 0 0 0 0
740 1 3.586204260830339e-06 19.771797668487523 42.03170201767517 0 0 0 0
741 1 6.68716499361427e-06 21.244017241998556 42.19566142603336 0 0 0 0
738 1 4.611049645601717e-06 17.66262830202599 43.407590160102245 0 0 0 0
739 1 -2.1771839582365726e-06 19.11404584206359 43.356439471457726 0 0 0 0
702 1 4.1350826268105045e-06 2.2621796925559248 44.753178153917695 0 0 0 0
703 1 1.466217958712157e-06 3.4472273447338835 44.45598957529217 0 0 0 0
716 1 5.377339138967763e-07 6.7409948389887075 44.66094267259033 0 0 0 0
717 1 3.2669772102034145e-06 7.904034171916247 44.52638268343406 0 0 0 0
718 1 -8.460541641608366e-06 11.069556747626224 44.69972763052548 0 0 0 0
729 1 3.895358683378425e-06 12.249826718012711 44.47393573701032 0 0 0 0
730 1 -8.052638333921891e-08 15.53988061471279 44.60739782070031 0 0 0 0
731 1 -5.839826376058399e-06 16.734232027404225 44.48645496011615 0 0 0 0