
# System definition
read_data graphene_single_layer_x-45_y-45_795_C.data
Reading data file ...
  orthogonal box = (-51.000000 -51.000000 -51.000000) to (96.000000 96.000000 51.000000)
  2 by 4 by 2 MPI processor grid
  reading atoms ...
  795 atoms
  read_data CPU = 0.016 seconds

pair_style reax/c NULL
pair_coeff * * ffield.reax.cho C
Reading potential file ffield.reax.cho with DATE: 2011-02-18
fix qeq_reax all qeq/reax 1 0.0 10.0 1.0e-6 reax/c


# Minimization
timestep 0.25
min_style cg
thermo 100
thermo_style custom step temp press vol lx density pe etotal
dump 2 all custom 1000 graphene_single_layer_ReaxFF_795_C_temp_200K.lammpstrj id type x y z
minimize 1.0e-6 1.0e-6 100 1000

CITE-CITE-CITE-CITE-CITE-CITE-CITE-CITE-CITE-CITE-CITE-CITE-CITE

Your simulation uses code contributions which should be cited:

- pair reaxff command:

@Article{Aktulga12,
 author = {H. M. Aktulga, J. C. Fogarty, S. A. Pandit, A. Y. Grama},
 title = {Parallel reactive molecular dynamics: Numerical methods and algorithmic techniques},
 journal = {Parallel Computing},
 year =    2012,
 volume =  38,
 pages =   {245--259}
}

- fix qeq/reaxff command:

@Article{Aktulga12,
 author = {H. M. Aktulga, J. C. Fogarty, S. A. Pandit, A. Y. Grama},
 title = {Parallel reactive molecular dynamics: Numerical methods and algorithmic techniques},
 journal = {Parallel Computing},
 year =    2012,
 volume =  38,
 pages =   {245--259}
}

CITE-CITE-CITE-CITE-CITE-CITE-CITE-CITE-CITE-CITE-CITE-CITE-CITE

WARNING: Using 'neigh_modify every 1 delay 0 check yes' setting during minimization (../min.cpp:188)
Neighbor list info ...
  update every 1 steps, delay 0 steps, check yes
  max neighbors/atom: 10000, page size: 100000
  master list distance cutoff = 10.4
  ghost atom cutoff = 10.4
  binsize = 5.2, bins = 29 29 20
  2 neighbor lists, perpetual/occasional/extra = 2 0 0
  (1) pair reax/c, perpetual
      attributes: half, newton off, ghost
      pair build: half/bin/newtoff/ghost
      stencil: full/ghost/bin/3d
      bin: standard
  (2) fix qeq/reax, perpetual, copy from (1)
      attributes: half, newton off, ghost
      pair build: copy
      stencil: none
      bin: none
Per MPI rank memory allocation (min/avg/max) = 7.965 | 10.90 | 14.56 Mbytes
Step Temp Press Volume Lx Density PotEng TotEng 
       0            0    4589.6155      2204118          147  0.007193656   -142445.78   -142445.78 
      57            0    1294.9092      2204118          147  0.007193656   -150031.46   -150031.46 
Loop time of 3.32093 on 16 procs for 57 steps with 795 atoms

100.0% CPU use with 16 MPI tasks x no OpenMP threads

Minimization stats:
  Stopping criterion = energy tolerance
  Energy initial, next-to-last, final = 
     -142445.777810412  -150031.434465826  -150031.460524184
  Force two-norm initial, final = 2416.1570 1787.6736
  Force max component initial, final = 272.51119 337.29483
  Final line search alpha, max atom move = 0.00017977701 0.060637855
  Iterations, force evaluations = 57 237

MPI task timing breakdown:
Section |  min time  |  avg time  |  max time  |%varavg| %total
---------------------------------------------------------------
Pair    | 0.00015657 | 0.69872    | 2.2901     | 101.8 | 21.04
Neigh   | 2.1121e-05 | 0.0015378  | 0.003188   |   3.9 |  0.05
Comm    | 0.000278   | 0.39644    | 1.5656     |  91.3 | 11.94
Output  | 0          | 0          | 0          |   0.0 |  0.00
Modify  | 1.0127     | 1.0153     | 1.0178     |   0.2 | 30.57
Other   |            | 1.209      |            |       | 36.40

Nlocal:        49.6875 ave         209 max           0 min
Histogram: 12 0 0 0 0 0 0 0 0 4
Nghost:        162.812 ave         432 max           0 min
Histogram: 8 0 0 0 0 4 0 0 0 4
Neighs:        3113.44 ave       13116 max           0 min
Histogram: 12 0 0 0 0 0 0 0 0 4

Total # of neighbors = 49815
Ave neighs/atom = 62.660377
Neighbor list builds = 6
Dangerous builds = 0

fix 1 all nvt temp 200.0 200.0 $(100.0*dt)
fix 1 all nvt temp 200.0 200.0 25
run 400000
Per MPI rank memory allocation (min/avg/max) = 6.841 | 9.777 | 13.44 Mbytes
Step Temp Press Volume Lx Density PotEng TotEng 
      57            0    1294.9092      2204118          147  0.007193656   -150031.46   -150031.46 
     100    120.60453    1525.5695      2204118          147  0.007193656   -150304.19   -150018.74 
     200    205.06642    -707.0021      2204118          147  0.007193656   -150544.94   -150059.59 
     300    246.88996   -742.69885      2204118          147  0.007193656   -150664.94   -150080.61 
     400    308.72078   -769.51882      2204118          147  0.007193656   -150883.22   -150152.55 
     500    208.66429    1195.2506      2204118          147  0.007193656   -150873.54   -150379.68 
     600    285.74546    -145.1543      2204118          147  0.007193656   -151193.53   -150517.24 
     700    193.77464   -524.89787      2204118          147  0.007193656   -151088.77   -150630.15 
     800    216.46431   -362.77914      2204118          147  0.007193656    -151159.1   -150646.78 
     900    185.93858    1022.4839      2204118          147  0.007193656   -151171.28   -150731.21 
    1000    210.25656   -313.26423      2204118          147  0.007193656   -151284.35   -150786.72 
    1100    163.16785   -152.45167      2204118          147  0.007193656   -151208.41   -150822.23 
    1200    206.17806    91.947063      2204118          147  0.007193656    -151247.9   -150759.93 
    1300    218.00917    572.59373      2204118          147  0.007193656   -151221.25   -150705.27 
    1400    201.83111   -573.77903      2204118          147  0.007193656   -151179.46   -150701.77 
    1500    218.22556   -22.926216      2204118          147  0.007193656   -151262.74   -150746.25 
    1600    190.92773    467.59546      2204118          147  0.007193656   -151268.87   -150816.99 
    1700    179.40574   -253.90081      2204118          147  0.007193656   -151266.83   -150842.22 
    1800    196.41746   -213.15519      2204118          147  0.007193656   -151262.11   -150797.24 
    1900    221.37688    527.29585      2204118          147  0.007193656   -151269.66   -150745.72 
    2000    194.35734   -414.08677      2204118          147  0.007193656   -151188.07   -150728.07 
    2100    215.71505    -192.9613      2204118          147  0.007193656   -151245.68   -150735.13 
    2200    202.26248    368.14424      2204118          147  0.007193656   -151261.66   -150782.95 
    2300    180.97474   -144.26368      2204118          147  0.007193656   -151254.66   -150826.33 
    2400    178.65335   -5.0339735      2204118          147  0.007193656   -151241.46   -150818.63 
    2500    191.58705    345.44383      2204118          147  0.007193656   -151220.55   -150767.11 
    2600    215.43815   -199.09068      2204118          147  0.007193656   -151253.55   -150743.66 
    2700    207.15151   -132.00186      2204118          147  0.007193656   -151266.17   -150775.89 
    2800    189.75358    232.94335      2204118          147  0.007193656   -151266.44   -150817.33 
    2900     185.2675    -257.4981      2204118          147  0.007193656   -151262.02   -150823.54 
    3000    205.60581   -37.124904      2204118          147  0.007193656   -151277.69   -150791.07 
    3100    203.24357    101.11847      2204118          147  0.007193656      -151252   -150770.97 
    3200     205.2061   -178.91306      2204118          147  0.007193656   -151258.19   -150772.51 
    3300    201.91227    139.62627      2204118          147  0.007193656      -151282   -150804.12 
    3400    199.88511    60.653756      2204118          147  0.007193656   -151305.58    -150832.5 
    3500    194.58764   -139.46756      2204118          147  0.007193656   -151293.19   -150832.65 
    3600    195.02321    132.98348      2204118          147  0.007193656   -151258.63   -150797.06 
    3700    194.17304   -27.998417      2204118          147  0.007193656   -151236.02   -150776.46 
    3800    208.30462   -104.47106      2204118          147  0.007193656   -151285.73   -150792.72 
    3900    203.90421    335.76736      2204118          147  0.007193656   -151308.26   -150825.67 
    4000    208.53956   -74.685075      2204118          147  0.007193656   -151325.87   -150832.31 
    4100    202.82857   -196.22875      2204118          147  0.007193656   -151298.58   -150818.53 
    4200    206.41776    35.564448      2204118          147  0.007193656   -151282.19   -150793.65 
    4300    204.48366   -44.181069      2204118          147  0.007193656   -151278.51   -150794.55 
    4400    203.81544    -13.67451      2204118          147  0.007193656   -151286.68    -150804.3 
    4500    206.09802    84.641036      2204118          147  0.007193656    -151308.6   -150820.81 
    4600    203.69212   -11.235038      2204118          147  0.007193656   -151313.77   -150831.68 
    4700    196.02877    101.50755      2204118          147  0.007193656   -151288.02   -150824.07 
    4800    197.99658    40.866805      2204118          147  0.007193656   -151265.05   -150796.44 
    4900    209.66684   -21.002641      2204118          147  0.007193656   -151287.39   -150791.16 
    5000    203.42897    104.17046      2204118          147  0.007193656   -151297.57    -150816.1 
    5100    199.81887    -206.1985      2204118          147  0.007193656   -151304.43   -150831.51 
    5200    194.47273   -89.534333      2204118          147  0.007193656   -151288.79   -150828.52 
    5300    208.00877     54.62145      2204118          147  0.007193656   -151295.22   -150802.91 
    5400    205.21414   -76.858053      2204118          147  0.007193656   -151284.37   -150798.68 
    5500    202.45935    161.58932      2204118          147  0.007193656   -151288.41   -150809.23 
    5600     202.3596    -10.85757      2204118          147  0.007193656   -151304.62   -150825.68 
    5700    201.75724  -0.13141772      2204118          147  0.007193656   -151323.47   -150845.96 
    5800    199.68529     78.49524      2204118          147  0.007193656   -151319.72   -150847.11 
    5900    193.81277   -69.128543      2204118          147  0.007193656   -151289.92   -150831.21 
    6000    197.87918    32.228621      2204118          147  0.007193656   -151280.38   -150812.05 
    6100    205.66115    157.14609      2204118          147  0.007193656   -151304.02   -150817.27 
    6200     197.2072     7.909019      2204118          147  0.007193656   -151307.93   -150841.19 
    6300    200.51157    7.2818558      2204118          147  0.007193656   -151324.41   -150849.85 
    6400    195.81354   -105.72191      2204118          147  0.007193656   -151303.24   -150839.79 
    6500    197.13726   -127.37909      2204118          147  0.007193656   -151291.37    -150824.8 
    6600    200.17232   -68.523167      2204118          147  0.007193656   -151298.72   -150824.96 
    6700     204.9593    168.36296      2204118          147  0.007193656   -151307.85   -150822.76 
    6800     213.3424   -65.848033      2204118          147  0.007193656   -151328.52   -150823.59 
    6900    200.88199    123.01446      2204118          147  0.007193656   -151341.57   -150866.13 
    7000    192.93691    32.991222      2204118          147  0.007193656   -151324.11   -150867.47 
    7100    193.40204    -20.23865      2204118          147  0.007193656   -151294.32   -150836.58 
    7200    195.39733    179.51182      2204118          147  0.007193656   -151285.72   -150823.26 
    7300    210.43415   -59.497897      2204118          147  0.007193656   -151322.62   -150824.57 
    7400    203.83267   -66.888959      2204118          147  0.007193656   -151335.39   -150852.97 
    7500    199.68727   -52.569247      2204118          147  0.007193656   -151335.98   -150863.37 
    7600    197.59202    12.225656      2204118          147  0.007193656   -151320.92   -150853.27 
    7700    203.07902   -74.991173      2204118          147  0.007193656   -151325.09   -150844.45 
    7800    195.07203   -67.967676      2204118          147  0.007193656    -151293.3   -150831.61 
    7900    200.94045    -51.80432      2204118          147  0.007193656   -151293.35   -150817.77 
    8000    197.92246    113.05122      2204118          147  0.007193656   -151300.71   -150832.27 
    8100    190.42427    4.3784843      2204118          147  0.007193656   -151319.65   -150868.96 
    8200     193.0944   -4.5045993      2204118          147  0.007193656   -151314.63   -150857.62 
    8300     203.3994   -20.455265      2204118          147  0.007193656   -151307.07   -150825.68 
    8400    208.20346   -106.63204      2204118          147  0.007193656   -151311.78   -150819.01 
    8500    207.08509   -23.410815      2204118          147  0.007193656    -151333.1   -150842.98 
    8600    201.96857    93.427929      2204118          147  0.007193656   -151336.59   -150858.58 
    8700    193.63574   -27.328307      2204118          147  0.007193656   -151317.05   -150858.76 
    8800    205.33812    44.295065      2204118          147  0.007193656   -151328.66   -150842.67 
    8900    200.88383    16.451549      2204118          147  0.007193656   -151308.37   -150832.93 
    9000    205.70073   -31.793247      2204118          147  0.007193656    -151318.2   -150831.36 
    9100     205.3596   -4.5144074      2204118          147  0.007193656   -151325.41   -150839.37 
    9200    205.24245   -198.47416      2204118          147  0.007193656   -151344.24   -150858.48 
    9300    197.87483    82.737737      2204118          147  0.007193656   -151340.02   -150871.69 
    9400    200.00383    143.88557      2204118          147  0.007193656   -151317.34   -150843.98 
    9500    215.34336    46.280266      2204118          147  0.007193656   -151324.88   -150815.21 
    9600    204.97564    186.96401      2204118          147  0.007193656   -151320.53    -150835.4 
    9700    192.48391   -63.831693      2204118          147  0.007193656   -151322.17    -150866.6 
    9800    205.13734   -146.27374      2204118          147  0.007193656   -151358.18   -150872.67 
    9900    208.86106    147.59749      2204118          147  0.007193656   -151357.25   -150862.92 
   10000    199.60801    61.436161      2204118          147  0.007193656   -151302.13   -150829.71 
   10100    204.11776   -41.434587      2204118          147  0.007193656   -151310.26   -150827.16 
   10200    216.51821     53.69842      2204118          147  0.007193656   -151372.13   -150859.68 
   10300    220.51429    -69.98949      2204118          147  0.007193656   -151428.15   -150906.24 
   10400    193.26967    43.042039      2204118          147  0.007193656   -151418.71   -150961.29 
   10500    201.63898    -32.83267      2204118          147  0.007193656   -151475.58   -150998.35 
   10600     204.7259    79.124515      2204118          147  0.007193656   -151508.48   -151023.94 
   10700    210.53595   -33.083915      2204118          147  0.007193656   -151524.99   -151026.71 
   10800    191.40204    14.487293      2204118          147  0.007193656   -151470.58   -151017.58 
   10900     199.3012    26.389299      2204118          147  0.007193656   -151470.67   -150998.97 
   11000     197.5743   -55.983237      2204118          147  0.007193656   -151459.66   -150992.04 
   11100    199.84125   -5.3567662      2204118          147  0.007193656   -151482.03   -151009.06 
   11200    196.20433   -10.456425      2204118          147  0.007193656   -151501.39   -151037.02 
   11300     199.9703    26.615378      2204118          147  0.007193656   -151514.32   -151041.04 
   11400    211.79734   -88.403688      2204118          147  0.007193656   -151530.34   -151029.07 
   11500    206.93238    2.6124761      2204118          147  0.007193656   -151482.72   -150992.96 
   11600    205.46408    74.925378      2204118          147  0.007193656   -151462.25   -150975.96 
   11700    203.38092    19.544762      2204118          147  0.007193656   -151478.24   -150996.88 
   11800    198.07724      65.8902      2204118          147  0.007193656   -151485.39   -151016.59 
   11900    194.79257   -99.529355      2204118          147  0.007193656   -151483.18   -151022.15 
   12000    213.82273   -45.962903      2204118          147  0.007193656   -151529.49   -151023.42 
   12100    200.59578    30.667483      2204118          147  0.007193656   -151529.57   -151054.81 
   12200    199.15145   -90.333585      2204118          147  0.007193656   -151528.84   -151057.49 
   12300    195.43856    55.057348      2204118          147  0.007193656   -151518.45   -151055.89 
   12400    203.32164    12.863656      2204118          147  0.007193656   -151539.95   -151058.74 
   12500    198.04048    186.26542      2204118          147  0.007193656   -151544.84   -151076.12 
   12600    195.44333   -9.7867666      2204118          147  0.007193656   -151565.33   -151102.76 
   12700    192.88257    28.698878      2204118          147  0.007193656   -151552.95   -151096.44 
   12800    199.99619    93.164929      2204118          147  0.007193656      -151543   -151069.66 
   12900    208.49626    105.42176      2204118          147  0.007193656   -151549.38   -151055.92 
   13000    196.40609   -69.140844      2204118          147  0.007193656   -151520.13   -151055.28 
   13100    202.68258    142.74798      2204118          147  0.007193656   -151559.91   -151080.21 
   13200    191.22596   -54.014999      2204118          147  0.007193656   -151549.68   -151097.09 
   13300    191.50486    51.906924      2204118          147  0.007193656   -151541.23   -151087.98 
   13400    196.86952    95.052824      2204118          147  0.007193656   -151533.46   -151067.51 
   13500    202.47409   -189.67515      2204118          147  0.007193656   -151534.54   -151055.33 
   13600    205.96589    39.573145      2204118          147  0.007193656   -151541.85   -151054.38 
   13700     204.6268    20.559743      2204118          147  0.007193656   -151554.83   -151070.53 
   13800    195.78388   -68.341853      2204118          147  0.007193656   -151566.73   -151103.36 
   13900    189.66825    166.60865      2204118          147  0.007193656   -151546.62   -151097.72 
   14000    199.73449   -100.03144      2204118          147  0.007193656   -151554.23    -151081.5 
   14100    198.15963   -4.0141616      2204118          147  0.007193656   -151538.12   -151069.13 
   14200    212.81809   -16.315344      2204118          147  0.007193656   -151567.17   -151063.48 
   14300    197.48305    58.313481      2204118          147  0.007193656   -151562.25   -151094.85 
   14400    192.17011    27.541921      2204118          147  0.007193656    -151568.2   -151113.37 
   14500      199.834   -126.91576      2204118          147  0.007193656    -151564.2   -151091.24 
   14600    194.35136   -37.366592      2204118          147  0.007193656   -151529.04   -151069.06 
   14700    202.91329     17.02032      2204118          147  0.007193656   -151546.19   -151065.94 
   14800    204.94763   -13.667298      2204118          147  0.007193656   -151564.52   -151079.46 
   14900    186.80199   -83.064388      2204118          147  0.007193656   -151550.21    -151108.1 
   15000    190.82913    57.097184      2204118          147  0.007193656   -151566.19   -151114.54 
   15100    196.37515    52.833225      2204118          147  0.007193656   -151565.25   -151100.48 
   15200    203.21963   -10.038831      2204118          147  0.007193656   -151566.59   -151085.62 
   15300    202.03766    51.904574      2204118          147  0.007193656   -151549.65   -151071.48 
   15400    212.45093    4.5901299      2204118          147  0.007193656   -151556.97   -151054.15 
   15500    205.14433   -63.460526      2204118          147  0.007193656    -151540.1   -151054.58 
   15600    200.38882   -18.934683      2204118          147  0.007193656   -151558.29   -151084.02 
   15700    193.80043   -78.367853      2204118          147  0.007193656    -151562.5   -151103.82 
   15800    186.22401   -33.165163      2204118          147  0.007193656   -151535.49   -151094.74 
   15900    194.94629    57.074859      2204118          147  0.007193656   -151538.68   -151077.29 
   16000    205.56568    -11.98411      2204118          147  0.007193656   -151542.08   -151055.55 
   16100     206.0353    133.93034      2204118          147  0.007193656   -151540.04   -151052.41 
   16200    204.34289   -39.269423      2204118          147  0.007193656   -151543.46   -151059.83 
   16300    199.61761    232.93066      2204118          147  0.007193656   -151544.15    -151071.7 
   16400     203.6157    36.662102      2204118          147  0.007193656    -151571.1   -151089.19 
   16500    199.76768   -133.07782      2204118          147  0.007193656   -151577.23   -151104.43 
   16600    188.15233    66.902167      2204118          147  0.007193656   -151538.85   -151093.54 
   16700    208.24904   -186.14993      2204118          147  0.007193656   -151549.54   -151056.66 
   16800    195.41426    4.4049381      2204118          147  0.007193656    -151525.3    -151062.8 
   16900    200.71941    54.013562      2204118          147  0.007193656   -151553.29   -151078.23 
   17000    198.86996   -58.564565      2204118          147  0.007193656   -151568.73   -151098.05 
   17100    211.45981    61.005691      2204118          147  0.007193656   -151597.82   -151097.34 
   17200    220.06521   -113.04531      2204118          147  0.007193656   -151576.16   -151055.32 
   17300    206.49925     -35.9588      2204118          147  0.007193656   -151541.66   -151052.92 
   17400    191.51217    186.14696      2204118          147  0.007193656   -151532.21   -151078.95 
   17500    199.80997   -173.92704      2204118          147  0.007193656   -151564.12   -151091.22 
   17600    192.28887    158.45719      2204118          147  0.007193656   -151541.24   -151086.14 
   17700    203.84583   -4.1368238      2204118          147  0.007193656   -151556.46   -151074.01 
   17800    208.98877   -81.608399      2204118          147  0.007193656   -151538.97   -151044.34 
   17900    205.57774     5.801987      2204118          147  0.007193656   -151521.87   -151035.31 
   18000    207.13375    -215.0564      2204118          147  0.007193656   -151557.44    -151067.2 
   18100    205.52093    135.05055      2204118          147  0.007193656   -151568.99   -151082.57 
   18200    198.92685    77.115981      2204118          147  0.007193656   -151555.51   -151084.69 
   18300    209.72246   -65.658978      2204118          147  0.007193656   -151580.06   -151083.69 
   18400    209.56835    52.431684      2204118          147  0.007193656   -151574.22   -151078.22 
   18500    206.39408   -36.266644      2204118          147  0.007193656   -151564.99    -151076.5 
   18600    206.41214   -39.701767      2204118          147  0.007193656   -151564.82    -151076.3 
   18700    198.35391    193.19423      2204118          147  0.007193656   -151545.44   -151075.98 
   18800     193.5388   -249.42062      2204118          147  0.007193656   -151527.15   -151069.09 
   18900    198.58727     139.3428      2204118          147  0.007193656    -151523.3   -151053.29 
   19000    199.46391   -64.744241      2204118          147  0.007193656   -151544.78   -151072.69 
   19100    193.40283   -29.074891      2204118          147  0.007193656   -151556.46   -151098.73 
   19200    187.64974    115.21109      2204118          147  0.007193656   -151545.34   -151101.21 
   19300    207.23696     -190.984      2204118          147  0.007193656   -151575.81   -151085.33 
   19400    196.74805    90.734682      2204118          147  0.007193656   -151537.88   -151072.22 
   19500     196.6757   -130.43219      2204118          147  0.007193656   -151542.47   -151076.99 
   19600    198.70823    105.86337      2204118          147  0.007193656   -151550.97   -151080.67 
   19700    193.27539    184.52759      2204118          147  0.007193656    -151547.5   -151090.06 
   19800    206.63687   -199.21209      2204118          147  0.007193656   -151579.52   -151090.46 
   19900    204.97745    126.34427      2204118          147  0.007193656   -151573.39   -151088.26 
   20000    194.53454   -86.668895      2204118          147  0.007193656   -151543.54   -151083.12 
   20100    195.12466    21.969305      2204118          147  0.007193656   -151542.78   -151080.97 
   20200    186.12984    260.24624      2204118          147  0.007193656   -151527.85   -151087.33 
   20300    189.33202   -162.67312      2204118          147  0.007193656   -151546.65   -151098.54 
   20400    190.80454    53.430362      2204118          147  0.007193656   -151539.64   -151088.05 
   20500    193.13301   -48.319986      2204118          147  0.007193656   -151519.87   -151062.77 
   20600    207.74843   -2.5309436      2204118          147  0.007193656   -151545.24   -151053.55 
   20700    199.82095     161.9503      2204118          147  0.007193656   -151555.87   -151082.94 
   20800    189.42351   -83.734943      2204118          147  0.007193656   -151544.88   -151096.55 
   20900    202.80939    207.10681      2204118          147  0.007193656   -151571.78   -151091.78 
   21000    202.38173   -55.989911      2204118          147  0.007193656   -151553.47   -151074.48 
   21100    211.11264   -68.988262      2204118          147  0.007193656   -151562.65      -151063 
   21200    202.41166    25.903726      2204118          147  0.007193656   -151548.59   -151069.53 
   21300    198.68718   -22.546138      2204118          147  0.007193656   -151576.42   -151106.18 
   21400    199.75756     59.81167      2204118          147  0.007193656   -151582.56   -151109.78 
   21500    192.66232   -5.5208436      2204118          147  0.007193656   -151539.96   -151083.98 
   21600    202.88231   -11.255325      2204118          147  0.007193656   -151550.11   -151069.93 
   21700    208.80153    116.46726      2204118          147  0.007193656   -151569.66   -151075.47 
   21800    197.22015   -123.76393      2204118          147  0.007193656   -151561.73   -151094.96 
   21900    191.99058    82.701751      2204118          147  0.007193656      -151558   -151103.61 
   22000    194.95164     45.00837      2204118          147  0.007193656   -151560.41   -151099.01 
   22100    195.46467   -45.558288      2204118          147  0.007193656   -151551.55   -151088.94 
   22200    201.60553    161.05774      2204118          147  0.007193656    -151554.5   -151077.35 
   22300    205.31348   -55.857731      2204118          147  0.007193656   -151568.22   -151082.29 
   22400    188.99144    62.917226      2204118          147  0.007193656   -151569.83   -151122.53 
   22500    187.99993    18.260728      2204118          147  0.007193656   -151570.51   -151125.56 
   22600     195.7167   -18.289768      2204118          147  0.007193656   -151559.84   -151096.62 
   22700    205.04201    67.284373      2204118          147  0.007193656   -151566.51   -151081.23 
   22800    208.11095   -233.03904      2204118          147  0.007193656   -151565.17   -151072.63 
   22900    206.95285    104.21236      2204118          147  0.007193656   -151557.16   -151067.35 
   23000    203.59791    53.644864      2204118          147  0.007193656   -151572.23   -151090.36 
   23100    189.20855    85.894265      2204118          147  0.007193656   -151557.83   -151110.02 
   23200    194.11723    159.66009      2204118          147  0.007193656   -151560.95   -151101.52 
   23300    201.38113   -105.16894      2204118          147  0.007193656   -151546.33   -151069.71 
   23400    216.44676    124.95769      2204118          147  0.007193656   -151569.37   -151057.09 
   23500    201.16699   -4.1565621      2204118          147  0.007193656   -151547.58   -151071.47 
   23600     189.4425   -1.4942872      2204118          147  0.007193656   -151538.62   -151090.26 
   23700    194.20739    68.112169      2204118          147  0.007193656   -151554.41   -151094.77 
   23800    201.22202   -95.385818      2204118          147  0.007193656   -151557.81   -151081.57 
   23900    203.02511    -8.200386      2204118          147  0.007193656   -151521.46   -151040.95 
   24000    200.31401     58.75416      2204118          147  0.007193656    -151524.1   -151050.01 
   24100    203.54283   -86.208734      2204118          147  0.007193656   -151560.51   -151078.77 
   24200    195.77297    125.26867      2204118          147  0.007193656   -151557.39   -151094.05 
   24300    192.72848   -27.289021      2204118          147  0.007193656   -151553.91   -151097.77 
   24400    200.00236    92.405622      2204118          147  0.007193656   -151566.85   -151093.49 
   24500    205.12674    8.3693399      2204118          147  0.007193656   -151547.89    -151062.4 
   24600    204.02763   -14.106953      2204118          147  0.007193656   -151528.97   -151046.08 
   24700    209.58399     28.95207      2204118          147  0.007193656   -151555.38   -151059.35 
   24800    197.45443    -139.8673      2204118          147  0.007193656   -151555.88   -151088.56 
   24900    196.28027   -95.222714      2204118          147  0.007193656   -151558.72   -151094.17 
   25000    205.44502   -16.601603      2204118          147  0.007193656   -151574.55   -151088.31 
   25100    199.97091   -18.280166      2204118          147  0.007193656   -151550.09   -151076.81 
   25200    213.08482    97.388979      2204118          147  0.007193656   -151555.35   -151051.03 
   25300    204.44964   -16.438315      2204118          147  0.007193656   -151531.73   -151047.84 
   25400    203.77245   -40.586108      2204118          147  0.007193656   -151564.45   -151082.17 
   25500     187.6439    7.9630621      2204118          147  0.007193656   -151543.18   -151099.07 
   25600    205.09875   -93.740535      2204118          147  0.007193656   -151579.23   -151093.81 
   25700    204.09033    76.392143      2204118          147  0.007193656   -151561.13    -151078.1 
   25800    198.96907    110.67583      2204118          147  0.007193656    -151533.5   -151062.59 
   25900    203.96921    19.894487      2204118          147  0.007193656   -151535.56   -151052.82 
   26000    202.09912   -24.560193      2204118          147  0.007193656   -151559.36   -151081.03 
   26100    191.17455   -30.563229      2204118          147  0.007193656   -151557.15   -151104.68 
   26200    204.94402   -31.850193      2204118          147  0.007193656   -151594.67   -151109.61 
   26300    196.81272   -111.70145      2204118          147  0.007193656   -151557.32   -151091.51 
   26400    206.37466    63.540581      2204118          147  0.007193656   -151552.86   -151064.42 
   26500    214.10365    155.68533      2204118          147  0.007193656   -151568.22   -151061.48 
   26600    205.71204   -60.097627      2204118          147  0.007193656   -151576.16   -151089.28 
   26700    196.75469     98.34278      2204118          147  0.007193656   -151564.46   -151098.79 
   26800    199.86961   -54.190578      2204118          147  0.007193656   -151570.02   -151096.98 
   26900    198.42486    8.7446215      2204118          147  0.007193656   -151562.93   -151093.31 
   27000    193.68677   -16.055821      2204118          147  0.007193656   -151543.45   -151085.04 
   27100    193.32149    7.3531269      2204118          147  0.007193656   -151532.09   -151074.55 
   27200    210.49774    -32.78916      2204118          147  0.007193656   -151560.04   -151061.84 
   27300      214.752    33.289698      2204118          147  0.007193656   -151556.41   -151048.14 
   27400    196.62348   -66.287948      2204118          147  0.007193656   -151532.11   -151066.75 
   27500    191.20181    110.30058      2204118          147  0.007193656   -151549.66   -151097.13 
   27600    189.06593    35.791451      2204118          147  0.007193656   -151553.61   -151106.14 
   27700    198.89824   0.73244047      2204118          147  0.007193656   -151569.67   -151098.93 
   27800    202.69764   -23.002327      2204118          147  0.007193656   -151545.48   -151065.74 
   27900    200.85752   -85.158885      2204118          147  0.007193656    -151530.7   -151055.32 
   28000    208.20561   -49.032376      2204118          147  0.007193656   -151557.72   -151064.95 
   28100    204.18803    111.29981      2204118          147  0.007193656    -151566.3   -151083.03 
   28200    196.90339   -34.037258      2204118          147  0.007193656   -151562.35   -151096.33 
   28300    209.18935   -45.844847      2204118          147  0.007193656   -151589.01   -151093.91 
   28400    203.89113    13.136765      2204118          147  0.007193656   -151572.16    -151089.6 
   28500    196.26699   -124.95402      2204118          147  0.007193656   -151532.51   -151067.99 
   28600    208.31529    42.265264      2204118          147  0.007193656   -151527.06   -151034.03 
   28700    211.28953   -53.536823      2204118          147  0.007193656   -151556.44   -151056.36 
   28800    197.27533    81.706244      2204118          147  0.007193656   -151552.13   -151085.23 
   28900     196.2337    28.776688      2204118          147  0.007193656   -151557.91   -151093.47 
   29000    202.19888   0.46963053      2204118          147  0.007193656   -151571.45    -151092.9 
   29100     202.0413    120.19347      2204118          147  0.007193656   -151564.14   -151085.96 
   29200    198.71135   -109.50068      2204118          147  0.007193656   -151542.77   -151072.47 
   29300    203.80828    77.049626      2204118          147  0.007193656   -151540.41   -151058.04 
   29400    207.70838   -95.493004      2204118          147  0.007193656   -151565.46   -151073.87 
   29500     211.0832   -43.087141      2204118          147  0.007193656   -151601.75   -151102.16 
   29600     198.8417   -22.092629      2204118          147  0.007193656   -151576.35   -151105.74 
   29700    197.20636   -93.374237      2204118          147  0.007193656   -151561.25   -151094.51 
   29800    186.48973    29.567101      2204118          147  0.007193656   -151527.66   -151086.28 
   29900    203.07536    -186.1327      2204118          147  0.007193656   -151563.13    -151082.5 
   30000    198.63051    78.788634      2204118          147  0.007193656   -151556.48   -151086.37 
   30100    194.51832    55.134405      2204118          147  0.007193656   -151553.98    -151093.6 
   30200    195.75442   -57.035901      2204118          147  0.007193656   -151567.57   -151104.26 
   30300    196.17399     112.6589      2204118          147  0.007193656   -151585.44   -151121.14 
   30400    196.63014   -156.89324      2204118          147  0.007193656   -151584.67   -151119.29 
   30500    194.87996    127.89746      2204118          147  0.007193656   -151548.95   -151087.72 
   30600    202.93142   -115.25813      2204118          147  0.007193656   -151550.92   -151070.63 
   30700    200.37402   -26.914735      2204118          147  0.007193656   -151548.17   -151073.93 
   30800    204.74272   -55.850339      2204118          147  0.007193656   -151573.33   -151088.75 
   30900    197.06651   -98.990658      2204118          147  0.007193656   -151591.87   -151125.46 
   31000    190.14608    62.444927      2204118          147  0.007193656   -151573.76   -151123.73 
   31100    192.37207   -26.464884      2204118          147  0.007193656   -151561.93   -151106.63 
   31200    198.92556    65.458563      2204118          147  0.007193656   -151556.47   -151085.66 
   31300    201.53301   -1.5718102      2204118          147  0.007193656   -151553.98      -151077 
   31400    205.40354   -27.446198      2204118          147  0.007193656    -151563.3   -151077.16 
   31500     194.7802    65.807572      2204118          147  0.007193656   -151546.43   -151085.43 
   31600    189.07117   -79.081746      2204118          147  0.007193656   -151570.07   -151122.59 
   31700    198.50756  -0.73515725      2204118          147  0.007193656   -151592.86   -151123.04 
   31800    193.95893    91.432434      2204118          147  0.007193656   -151557.56    -151098.5 
   31900    200.32777   -147.14009      2204118          147  0.007193656   -151554.57   -151080.45 
   32000    207.72378    83.243983      2204118          147  0.007193656   -151569.16   -151077.53 
   32100    200.73601   -122.68381      2204118          147  0.007193656   -151561.34   -151086.24 
   32200    187.78027   -124.92415      2204118          147  0.007193656   -151558.42   -151113.99 
   32300    193.23561    163.08278      2204118          147  0.007193656   -151593.39   -151136.05 
   32400    181.24418   -68.469736      2204118          147  0.007193656   -151547.57   -151118.61 
   32500    184.46241    75.093067      2204118          147  0.007193656   -151536.61   -151100.03 
   32600    194.72249    7.3326633      2204118          147  0.007193656   -151547.88   -151087.02 
   32700    206.71595   -91.225105      2204118          147  0.007193656   -151565.84   -151076.59 
   32800    211.55169     108.2193      2204118          147  0.007193656   -151562.47   -151061.78 
   32900    210.08501   -122.97219      2204118          147  0.007193656   -151548.97   -151051.75 
   33000    209.11313    35.390099      2204118          147  0.007193656   -151557.08   -151062.16 
   33100    200.66172    23.756458      2204118          147  0.007193656   -151568.76   -151093.84 
   33200    199.06675   -111.90135      2204118          147  0.007193656    -151576.9   -151105.76 
   33300    193.90242    190.30168      2204118          147  0.007193656   -151562.88   -151103.96 
   33400    194.22135   -126.90769      2204118          147  0.007193656   -151540.96   -151081.28 
   33500    204.57365    64.637263      2204118          147  0.007193656   -151536.89   -151052.71 
   33600    211.92161   -30.025041      2204118          147  0.007193656   -151563.32   -151061.75 
   33700    202.24539     58.26408      2204118          147  0.007193656   -151556.33   -151077.66 
   33800     193.6386    33.986239      2204118          147  0.007193656   -151549.77   -151091.48 
   33900    198.40547   -43.168835      2204118          147  0.007193656   -151561.96   -151092.38 
   34000    202.21107   -53.379773      2204118          147  0.007193656   -151568.18   -151089.59 
   34100    190.79447    123.63676      2204118          147  0.007193656   -151533.97   -151082.41 
   34200    193.37566   -196.67933      2204118          147  0.007193656    -151511.4   -151053.73 
   34300    209.91019    179.11525      2204118          147  0.007193656   -151532.15   -151035.34 
   34400    210.54921    80.425985      2204118          147  0.007193656   -151553.85   -151055.53 
   34500    192.56517    29.663654      2204118          147  0.007193656   -151535.74   -151079.98 
   34600    203.15651   -52.230373      2204118          147  0.007193656   -151567.27   -151086.45 
   34700    196.75785    -96.04374      2204118          147  0.007193656   -151556.93   -151091.25 
   34800    192.62355   -7.7848213      2204118          147  0.007193656   -151542.95   -151087.05 
   34900    208.39712     110.3522      2204118          147  0.007193656   -151556.89   -151063.66 
   35000    211.58176    1.3791048      2204118          147  0.007193656   -151557.13   -151056.37 
   35100      198.253    44.462963      2204118          147  0.007193656   -151549.62    -151080.4 
   35200     188.2647   -71.935044      2204118          147  0.007193656   -151556.13   -151110.56 
   35300    193.29559   -29.074004      2204118          147  0.007193656   -151559.15   -151101.67 
   35400    200.68679    -61.67308      2204118          147  0.007193656   -151552.52   -151077.54 
   35500     200.3215    -34.80609      2204118          147  0.007193656   -151543.02    -151068.9 
   35600    206.95708    27.520117      2204118          147  0.007193656   -151563.09   -151073.27 
   35700     190.3898     3.461669      2204118          147  0.007193656    -151565.6      -151115 
   35800    190.49245   -28.196956      2204118          147  0.007193656   -151571.59   -151120.74 
   35900    207.39003   -68.181509      2204118          147  0.007193656   -151591.32   -151100.48 
   36000    200.34334    31.019103      2204118          147  0.007193656   -151551.67    -151077.5 
   36100    204.25538   -33.212275      2204118          147  0.007193656   -151558.26   -151074.83 
   36200     202.5251    60.310932      2204118          147  0.007193656   -151573.59   -151094.26 
   36300    203.92193    -58.87424      2204118          147  0.007193656   -151594.26   -151111.62 
   36400     197.2945   -70.304665      2204118          147  0.007193656   -151574.19   -151107.24 
   36500    201.89467   -24.824261      2204118          147  0.007193656   -151568.25   -151090.41 
   36600    201.44856    -11.12928      2204118          147  0.007193656   -151554.81   -151078.03 
   36700    197.15323     66.53071      2204118          147  0.007193656    -151545.6   -151078.99 
   36800    185.86358   -35.115175      2204118          147  0.007193656   -151536.36   -151096.46 
   36900    194.74249    26.238873      2204118          147  0.007193656   -151581.41    -151120.5 
   37000     192.2671    161.35336      2204118          147  0.007193656   -151571.92   -151116.87 
   37100    199.13691     -167.084      2204118          147  0.007193656   -151556.66   -151085.35 
   37200    199.22649    85.221765      2204118          147  0.007193656   -151540.95   -151069.43 
   37300     198.2688   -19.922684      2204118          147  0.007193656   -151549.12   -151079.87 
   37400    201.39891   -187.87447      2204118          147  0.007193656   -151572.81   -151096.14 
   37500    202.92349    25.148953      2204118          147  0.007193656    -151591.4   -151111.13 
   37600    187.78266   -155.87855      2204118          147  0.007193656   -151559.99   -151115.55 
   37700    195.40304   -30.361081      2204118          147  0.007193656   -151550.48      -151088 
   37800    203.23488    139.59654      2204118          147  0.007193656    -151550.4   -151069.39 
   37900    196.21066   -68.062699      2204118          147  0.007193656    -151537.3   -151072.92 
   38000    184.18942    73.846299      2204118          147  0.007193656   -151531.02   -151095.09 
   38100     198.1335   -129.59865      2204118          147  0.007193656   -151584.23   -151115.29 
   38200    195.16958    25.916964      2204118          147  0.007193656    -151566.1   -151104.18 
   38300    206.13936    103.58761      2204118          147  0.007193656   -151566.31   -151078.43 
   38400    190.06738    20.299682      2204118          147  0.007193656   -151521.97   -151072.12 
   38500    201.25641    97.450226      2204118          147  0.007193656   -151550.63    -151074.3 
   38600    198.31848   -7.6051268      2204118          147  0.007193656   -151554.22   -151084.84 
   38700    204.38929   -104.80581      2204118          147  0.007193656   -151577.47   -151093.73 
   38800     193.8195    59.155983      2204118          147  0.007193656   -151555.41   -151096.68 
   38900    203.25509   -101.45564      2204118          147  0.007193656   -151569.52   -151088.46 
   39000    200.75474    -25.82537      2204118          147  0.007193656   -151547.31   -151072.17 
   39100    199.73344    83.784899      2204118          147  0.007193656   -151532.49   -151059.77 
   39200    199.27936   -171.21868      2204118          147  0.007193656   -151552.27   -151080.63 
   39300    194.61608    69.781311      2204118          147  0.007193656   -151567.94   -151107.33 
   39400    198.71807   -58.935707      2204118          147  0.007193656   -151576.38   -151106.06 
   39500    199.81686    26.973127      2204118          147  0.007193656   -151566.21   -151093.29 
   39600    197.44122    73.611604      2204118          147  0.007193656   -151556.77   -151089.47 
   39700    199.20735   -165.66933      2204118          147  0.007193656   -151558.35   -151086.87 
   39800    210.13068    52.814831      2204118          147  0.007193656   -151580.71   -151083.38 
   39900    204.80858   -178.85951      2204118          147  0.007193656   -151571.15   -151086.42 
   40000    187.18839    85.574864      2204118          147  0.007193656   -151534.51   -151091.47 
   40100    192.48561    44.759228      2204118          147  0.007193656   -151558.44   -151102.88 
   40200    194.68701   -80.936106      2204118          147  0.007193656   -151595.01   -151134.24 
   40300    192.61989    112.34783      2204118          147  0.007193656   -151583.19    -151127.3 
   40400    201.17971   -108.77124      2204118          147  0.007193656   -151572.68   -151096.53 
   40500     207.0231    80.100631      2204118          147  0.007193656   -151573.67   -151083.69 
   40600      202.383     118.1715      2204118          147  0.007193656   -151557.32   -151078.32 
   40700    204.50229   -43.471773      2204118          147  0.007193656   -151554.42   -151070.41 
   40800    194.41806    89.176633      2204118          147  0.007193656   -151539.13   -151078.99 
   40900    195.99896   -63.948757      2204118          147  0.007193656   -151567.76   -151103.88 
   41000     194.7849   -79.539882      2204118          147  0.007193656    -151578.1   -151117.09 
   41100    208.89494    1.3100658      2204118          147  0.007193656   -151591.91    -151097.5 
   41200     213.4173    16.090145      2204118          147  0.007193656   -151568.63   -151063.52 
   41300    204.88327    32.889053      2204118          147  0.007193656   -151547.57   -151062.66 
   41400    200.70318   -43.997528      2204118          147  0.007193656   -151546.46   -151071.45 
   41500    197.04222    36.856562      2204118          147  0.007193656   -151558.93   -151092.58 
   41600    189.46978    86.387997      2204118          147  0.007193656   -151551.89   -151103.46 
   41700    195.08305    22.891353      2204118          147  0.007193656   -151561.04   -151099.33 
   41800    199.30674     71.19469      2204118          147  0.007193656   -151564.93   -151093.22 
   41900    201.32236   -81.437986      2204118          147  0.007193656   -151558.26   -151081.77 
   42000    208.61683    118.81686      2204118          147  0.007193656   -151559.05    -151065.3 
   42100    196.40737   -167.18703      2204118          147  0.007193656   -151536.95    -151072.1 
   42200    196.80565    115.70518      2204118          147  0.007193656    -151570.2   -151104.41 
   42300    190.21355    -4.852594      2204118          147  0.007193656   -151567.58   -151117.39 
   42400     199.7878   -20.836774      2204118          147  0.007193656   -151575.47   -151102.62 
   42500    209.53753    86.149973      2204118          147  0.007193656    -151570.9   -151074.97 
   42600    199.38112   -119.56216      2204118          147  0.007193656   -151546.32   -151074.43 
   42700    193.04581    215.26402      2204118          147  0.007193656   -151539.65   -151082.76 
   42800    193.47781   -24.977078      2204118          147  0.007193656   -151547.89   -151089.98 
   42900    205.95948   -59.551409      2204118          147  0.007193656   -151587.13   -151099.67 
   43000    197.94877    66.848096      2204118          147  0.007193656   -151597.23   -151128.74 
   43100    189.91902   -112.56029      2204118          147  0.007193656   -151573.71   -151124.21 
   43200    190.95995   -9.7436486      2204118          147  0.007193656   -151543.42   -151091.46 
   43300     198.0603    67.340389      2204118          147  0.007193656    -151543.6   -151074.84 
   43400    194.16954   -23.759723      2204118          147  0.007193656   -151532.39   -151072.83 
   43500    209.25582    59.555336      2204118          147  0.007193656   -151563.34   -151068.08 
   43600     192.0012    27.554799      2204118          147  0.007193656   -151539.04   -151084.62 
   43700     193.6013   -42.779531      2204118          147  0.007193656   -151567.27   -151109.06 
   43800     196.1104   -39.652441      2204118          147  0.007193656   -151574.35    -151110.2 
   43900    189.58402   -45.692038      2204118          147  0.007193656   -151532.78   -151084.08 
   44000    203.16363   -71.913768      2204118          147  0.007193656   -151538.97   -151058.13 
   44100    201.11156    53.050359      2204118          147  0.007193656   -151541.88   -151065.89 
   44200    200.34287   -98.104795      2204118          147  0.007193656   -151557.88   -151083.72 
   44300    199.85705    102.50642      2204118          147  0.007193656   -151568.78   -151095.76 
   44400    200.83724    48.345465      2204118          147  0.007193656   -151570.64   -151095.31 
   44500    192.06104   -101.66603      2204118          147  0.007193656   -151527.94   -151073.37 
   44600    207.15367    47.232091      2204118          147  0.007193656    -151534.9   -151044.61 
   44700    204.15993   -51.401712      2204118          147  0.007193656   -151531.11   -151047.91 
   44800    207.38977     6.317895      2204118          147  0.007193656   -151572.43   -151081.58 
   44900     201.1756    79.921952      2204118          147  0.007193656   -151567.01   -151090.87 
   45000    210.37078    24.603486      2204118          147  0.007193656   -151595.09    -151097.2 
   45100    205.31613    -69.63583      2204118          147  0.007193656   -151586.52   -151100.59 
   45200     198.2476   -7.5296315      2204118          147  0.007193656   -151540.08   -151070.88 
   45300    204.68505    -81.51106      2204118          147  0.007193656   -151537.82   -151053.38 
   45400    199.52265    17.723797      2204118          147  0.007193656   -151541.21   -151068.99 
   45500     191.6559     10.08479      2204118          147  0.007193656   -151546.04   -151092.44 
   45600    193.39206   -53.729496      2204118          147  0.007193656   -151551.93   -151094.22 
   45700    202.04348   -66.786731      2204118          147  0.007193656    -151564.6   -151086.41 
   45800    194.95976    3.4870573      2204118          147  0.007193656   -151542.82    -151081.4 
   45900    216.14321   -131.83418      2204118          147  0.007193656   -151575.67   -151064.11 
   46000    209.53799   -45.081315      2204118          147  0.007193656   -151537.24   -151041.32 
   46100    205.62258   -9.5237674      2204118          147  0.007193656   -151548.23   -151061.57 
   46200    199.69224   -9.7067326      2204118          147  0.007193656   -151559.62   -151086.99 
   46300    201.23919    153.41697      2204118          147  0.007193656   -151565.83   -151089.55 
   46400    192.60849   -80.850497      2204118          147  0.007193656   -151542.27   -151086.41 
   46500    199.87257    97.798465      2204118          147  0.007193656   -151551.64   -151078.59 
   46600    200.28644    -97.81075      2204118          147  0.007193656   -151545.18   -151071.15 
   46700    195.42145   -48.380884      2204118          147  0.007193656   -151532.35   -151069.83 
   46800    210.70264   -15.420901      2204118          147  0.007193656   -151564.72   -151066.03 
   46900    197.28652   -106.82268      2204118          147  0.007193656    -151553.9   -151086.97 
   47000      200.853   -68.174534      2204118          147  0.007193656   -151587.85   -151112.48 
   47100    197.47648    105.58531      2204118          147  0.007193656   -151582.81   -151115.43 
   47200    200.51113   -64.450924      2204118          147  0.007193656   -151573.36    -151098.8 
   47300    202.22524   -8.4798066      2204118          147  0.007193656   -151566.44   -151087.82 
   47400    198.97271    25.948035      2204118          147  0.007193656   -151555.32    -151084.4 
   47500    189.62749   -163.65853      2204118          147  0.007193656   -151530.36   -151081.55 
   47600    207.32952    136.24184      2204118          147  0.007193656   -151567.76   -151077.06 
   47700    197.41477   -49.269807      2204118          147  0.007193656   -151557.43    -151090.2 
   47800    192.97608    17.107139      2204118          147  0.007193656   -151567.31   -151110.58 
   47900    197.05155    21.739394      2204118          147  0.007193656   -151582.78    -151116.4 
   48000    202.42879   -47.966094      2204118          147  0.007193656   -151564.25   -151085.15 
   48100    209.61278   -87.983883      2204118          147  0.007193656   -151564.59   -151068.48 
   48200    191.52973   -30.697898      2204118          147  0.007193656   -151534.19   -151080.88 
   48300     197.5343    46.438677      2204118          147  0.007193656   -151564.14   -151096.63 
   48400    202.61137     34.82546      2204118          147  0.007193656   -151586.21   -151106.68 
   48500    191.64634    16.654161      2204118          147  0.007193656   -151538.66   -151085.08 
   48600    200.28376    21.471133      2204118          147  0.007193656   -151531.08   -151057.05 
   48700    205.35316   -26.493112      2204118          147  0.007193656   -151536.31   -151050.29 
   48800       204.18    69.114741      2204118          147  0.007193656   -151561.51   -151078.27 
   48900    193.25386   -46.153435      2204118          147  0.007193656   -151555.83   -151098.45 
   49000     202.0822    61.393236      2204118          147  0.007193656   -151570.77   -151092.49 
   49100    200.20321    43.117918      2204118          147  0.007193656   -151562.22   -151088.39 
   49200    197.02302   -3.7289128      2204118          147  0.007193656    -151550.1    -151083.8 
   49300    198.52015    120.74372      2204118          147  0.007193656   -151542.87   -151073.02 
   49400    194.88568   -24.377941      2204118          147  0.007193656   -151533.21   -151071.96 
   49500    194.70795   -33.418698      2204118          147  0.007193656   -151554.63   -151093.81 
   49600    191.32994    54.665829      2204118          147  0.007193656   -151565.64    -151112.8 
   49700     188.2657    26.430418      2204118          147  0.007193656   -151551.14   -151105.56 
   49800    211.46104   -163.31521      2204118          147  0.007193656   -151565.41   -151064.93 
   49900    199.34903    33.866402      2204118          147  0.007193656   -151531.48   -151059.67 
   50000    204.24597   -38.692302      2204118          147  0.007193656   -151556.99   -151073.59 
   50100    195.44393   -58.251273      2204118          147  0.007193656   -151558.71   -151096.14 
   50200    199.98227     37.02221      2204118          147  0.007193656   -151574.14   -151100.83 
   50300    203.74998   -15.236581      2204118          147  0.007193656    -151577.2   -151094.97 
   50400    202.50082   -59.365318      2204118          147  0.007193656   -151549.94   -151070.67 
   50500    203.17038    9.2950803      2204118          147  0.007193656   -151522.05   -151041.19 
   50600     205.2155   -49.944857      2204118          147  0.007193656   -151542.13   -151056.43 
   50700     201.6587    54.927282      2204118          147  0.007193656   -151564.19   -151086.91 
   50800    206.44138    27.170601      2204118          147  0.007193656   -151587.62   -151099.02 
   50900    195.86927   -78.740984      2204118          147  0.007193656   -151559.21   -151095.63 
   51000    206.84286    97.647055      2204118          147  0.007193656   -151564.84   -151075.29 
   51100    201.96291    -83.71588      2204118          147  0.007193656   -151524.36   -151046.36 
   51200    220.20735   -80.035302      2204118          147  0.007193656   -151563.95   -151042.77 
   51300    209.13442   -109.75847      2204118          147  0.007193656   -151577.01   -151082.04 
   51400    195.14567     30.07848      2204118          147  0.007193656   -151553.06   -151091.19 
   51500    197.24466    104.37424      2204118          147  0.007193656   -151561.95   -151095.12 
   51600    196.54742    30.057141      2204118          147  0.007193656    -151575.5   -151110.32 
   51700    181.58496    43.783159      2204118          147  0.007193656    -151554.6   -151124.83 
   51800     193.7644    82.723153      2204118          147  0.007193656   -151579.29    -151120.7 
   51900    208.39232   -67.119434      2204118          147  0.007193656   -151581.66   -151088.45 
   52000    203.47513   -42.581112      2204118          147  0.007193656   -151556.17    -151074.6 
   52100    199.46708   -28.144875      2204118          147  0.007193656   -151561.67   -151089.58 
   52200     202.3813    56.327458      2204118          147  0.007193656    -151589.2   -151110.21 
   52300    199.23405    40.334161      2204118          147  0.007193656   -151584.28   -151112.74 
   52400    199.85666    31.757548      2204118          147  0.007193656   -151583.67   -151110.66 
   52500    193.80427    72.754134      2204118          147  0.007193656   -151566.49    -151107.8 
   52600     197.9435    -141.5292      2204118          147  0.007193656   -151543.49   -151075.01 
   52700    207.21341    50.113594      2204118          147  0.007193656   -151551.69   -151061.26 
   52800     207.2057    89.985993      2204118          147  0.007193656   -151578.23   -151087.82 
   52900    203.05129   -48.197729      2204118          147  0.007193656   -151583.12   -151102.54 
   53000    201.16354    202.86411      2204118          147  0.007193656   -151582.85   -151106.74 
   53100    206.43935   -154.12541      2204118          147  0.007193656   -151610.67   -151122.08 
   53200    182.00961   -48.337335      2204118          147  0.007193656   -151579.33   -151148.55 
   53300     188.8705   -13.159452      2204118          147  0.007193656   -151587.55   -151140.54 
   53400    198.22677   -162.84864      2204118          147  0.007193656   -151565.48   -151096.33 
   53500    204.13126    104.93243      2204118          147  0.007193656   -151578.38   -151095.25 
   53600    194.68899   -21.585855      2204118          147  0.007193656   -151573.52   -151112.74 
   53700    198.18335    29.802297      2204118          147  0.007193656   -151598.61   -151129.56 
   53800     194.0399     35.59841      2204118          147  0.007193656    -151580.9   -151121.65 
   53900    207.82942   -167.35182      2204118          147  0.007193656   -151576.26   -151084.38 
   54000     209.2788    180.08364      2204118          147  0.007193656   -151573.77   -151078.45 
   54100    204.80362   -176.67863      2204118          147  0.007193656   -151577.44   -151092.71 
   54200    200.29268    30.603902      2204118          147  0.007193656   -151574.12   -151100.08 
   54300    200.90904    115.44494      2204118          147  0.007193656   -151584.85   -151109.35 
   54400     197.0462   -164.55265      2204118          147  0.007193656   -151577.69   -151111.33 
   54500     196.8307    80.924619      2204118          147  0.007193656    -151573.2   -151107.35 
   54600    205.98244   -147.94389      2204118          147  0.007193656   -151582.64   -151095.13 
   54700    203.66881    39.456896      2204118          147  0.007193656   -151554.36   -151072.33 
   54800    211.05629    146.76157      2204118          147  0.007193656   -151558.03   -151058.51 
   54900    201.71777   -139.61342      2204118          147  0.007193656   -151563.59   -151086.17 
   55000    198.74666     22.80148      2204118          147  0.007193656   -151577.57   -151107.18 
   55100    190.23337    91.326418      2204118          147  0.007193656   -151561.99   -151111.75 
   55200    192.95465   -145.17111      2204118          147  0.007193656    -151566.1   -151109.42 
   55300    201.13828    154.99626      2204118          147  0.007193656   -151594.69   -151118.65 
   55400    180.61847   -58.853125      2204118          147  0.007193656   -151558.92   -151131.44 
   55500    200.46822    22.382109      2204118          147  0.007193656   -151592.35   -151117.89 
   55600    206.03932    34.695564      2204118          147  0.007193656   -151582.01   -151094.36 
   55700    199.69317   -85.701118      2204118          147  0.007193656    -151558.4   -151085.78 
   55800     205.2473    48.407499      2204118          147  0.007193656   -151577.18   -151091.41 
   55900    189.14309    85.600602      2204118          147  0.007193656   -151572.72   -151125.06 
   56000    191.03333   -28.526427      2204118          147  0.007193656   -151585.64   -151133.51 
   56100    203.14619   -38.672912      2204118          147  0.007193656   -151595.18   -151114.38 
   56200    217.70034   -80.629876      2204118          147  0.007193656   -151604.49   -151089.24 
   56300    217.36403    132.36179      2204118          147  0.007193656   -151603.31   -151088.86 
   56400    200.89169   -56.363617      2204118          147  0.007193656   -151569.69   -151094.23 
   56500    197.91336   -17.018594      2204118          147  0.007193656   -151567.36   -151098.95 
   56600    190.94067    76.289365      2204118          147  0.007193656   -151563.32   -151111.41 
   56700    189.43447   -66.556029      2204118          147  0.007193656   -151572.45    -151124.1 
   56800    193.22191    41.895742      2204118          147  0.007193656   -151608.88   -151151.57 
   56900    194.45899   -2.2795171      2204118          147  0.007193656   -151617.59   -151157.35 
   57000    187.07689   -77.233513      2204118          147  0.007193656   -151566.08   -151123.32 
   57100    201.60133   -17.618191      2204118          147  0.007193656   -151582.91   -151105.77 
   57200    205.29188   -12.828767      2204118          147  0.007193656   -151582.72   -151096.84 
   57300    199.16201    44.258815      2204118          147  0.007193656   -151569.37      -151098 
   57400    191.23407    86.471645      2204118          147  0.007193656   -151564.36   -151111.76 
   57500    199.47889   -22.134404      2204118          147  0.007193656   -151608.69   -151136.57 
   57600    200.46782      24.9428      2204118          147  0.007193656    -151617.5   -151143.04 
   57700     189.7837   -113.84092      2204118          147  0.007193656   -151564.26   -151115.08 
   57800    193.29357   -83.384824      2204118          147  0.007193656    -151552.1   -151094.62 
   57900    207.44916   -45.314703      2204118          147  0.007193656   -151589.44   -151098.45 
   58000    207.82521   -68.359421      2204118          147  0.007193656   -151605.87      -151114 
   58100    191.68938    10.424398      2204118          147  0.007193656   -151585.82   -151132.14 
   58200    192.07224   -127.10588      2204118          147  0.007193656   -151596.61   -151142.02 
   58300     193.0439    60.078129      2204118          147  0.007193656   -151600.25   -151143.37 
   58400     201.2906   -128.30232      2204118          147  0.007193656   -151631.93   -151155.53 
   58500    194.17881   -71.487806      2204118          147  0.007193656   -151620.25   -151160.67 
   58600    201.13808    167.58209      2204118          147  0.007193656    -151632.6   -151156.56 
   58700    203.11079   -42.639218      2204118          147  0.007193656   -151617.24   -151136.53 
   58800    204.90455    70.278721      2204118          147  0.007193656   -151601.66    -151116.7 
   58900    210.73166   -1.2469474      2204118          147  0.007193656   -151617.94   -151119.19 
   59000     187.8916   -139.21259      2204118          147  0.007193656   -151600.48   -151155.78 
   59100    197.64948    77.845777      2204118          147  0.007193656   -151629.08   -151161.29 
   59200    199.73404   -114.20801      2204118          147  0.007193656    -151632.2   -151159.48 
   59300    203.87019   -24.700837      2204118          147  0.007193656   -151630.36   -151147.85 
   59400    210.68836    71.455656      2204118          147  0.007193656    -151613.3   -151114.65 
   59500    204.31788   -121.13924      2204118          147  0.007193656   -151590.85   -151107.28 
   59600    206.12926   -29.146974      2204118          147  0.007193656   -151621.57   -151133.71 
   59700    196.88644   -85.583003      2204118          147  0.007193656   -151613.87   -151147.89 
   59800    205.17085   -53.554856      2204118          147  0.007193656   -151640.75   -151155.15 
   59900     197.9431    150.40581      2204118          147  0.007193656   -151619.18    -151150.7 
   60000    199.54673   -37.218238      2204118          147  0.007193656   -151596.37   -151124.09 
   60100    210.37673    143.14901      2204118          147  0.007193656   -151598.44   -151100.53 
   60200    209.05799   -4.2907592      2204118          147  0.007193656   -151615.34   -151120.55 
   60300    210.44881   -123.15074      2204118          147  0.007193656   -151646.77   -151148.68 
   60400    207.39617    131.76527      2204118          147  0.007193656   -151645.63   -151154.77 
   60500    192.90652    -123.1836      2204118          147  0.007193656   -151619.89   -151163.33 
   60600    186.06095    19.848181      2204118          147  0.007193656   -151606.97   -151166.61 
   60700    198.09255    20.843686      2204118          147  0.007193656   -151608.84      -151140 
   60800    207.92038   -134.63928      2204118          147  0.007193656    -151610.8    -151118.7 
   60900    208.61037     162.1504      2204118          147  0.007193656   -151618.53    -151124.8 
   61000    203.10391   -137.29411      2204118          147  0.007193656    -151624.3    -151143.6 
   61100    198.46902    77.122701      2204118          147  0.007193656   -151616.99   -151147.26 
   61200     198.8419    64.094806      2204118          147  0.007193656   -151611.43   -151140.82 
   61300    193.01391   -43.062453      2204118          147  0.007193656   -151604.53   -151147.71 
   61400    196.54354    129.33636      2204118          147  0.007193656   -151634.43   -151169.26 
   61500    188.92955   -121.27709      2204118          147  0.007193656   -151639.04   -151191.89 
   61600    196.61766   -31.031683      2204118          147  0.007193656   -151639.32   -151173.97 
   61700    195.41898   -24.110923      2204118          147  0.007193656   -151606.36   -151143.85 
   61800    201.01951   -129.09068      2204118          147  0.007193656   -151615.96   -151140.19 
   61900    187.31862    81.499489      2204118          147  0.007193656   -151600.21   -151156.88 
   62000    192.95438    64.042422      2204118          147  0.007193656    -151624.6   -151167.92 
   62100    194.69419   -24.833976      2204118          147  0.007193656   -151629.62   -151168.83 
   62200    204.76216    -131.3259      2204118          147  0.007193656   -151623.85   -151139.23 
   62300     205.0964   -24.464859      2204118          147  0.007193656   -151605.96   -151120.54 
   62400    208.55336    73.253375      2204118          147  0.007193656   -151622.71   -151129.12 
   62500     195.4602   -107.64444      2204118          147  0.007193656   -151618.97   -151156.36 
   62600    209.02306    83.556231      2204118          147  0.007193656    -151667.1   -151172.39 
   62700    192.18075   -62.650968      2204118          147  0.007193656   -151626.23   -151171.38 
   62800    201.67322   -64.128764      2204118          147  0.007193656   -151638.18   -151160.87 
   62900    204.12856      139.921      2204118          147  0.007193656   -151625.91   -151142.79 
   63000     197.2605    52.406914      2204118          147  0.007193656   -151601.05   -151134.18 
   63100    202.16569    23.291032      2204118          147  0.007193656   -151626.26   -151147.78 
   63200    188.43288    30.590388      2204118          147  0.007193656   -151623.98   -151178.01 
   63300    200.26541   -69.359335      2204118          147  0.007193656    -151652.4   -151178.42 
   63400    212.88912    65.141571      2204118          147  0.007193656   -151657.03   -151153.17 
   63500     204.9508     29.41286      2204118          147  0.007193656   -151625.87    -151140.8 
   63600      194.784   -71.158341      2204118          147  0.007193656    -151607.3   -151146.29 
   63700    196.34864    63.465346      2204118          147  0.007193656   -151618.12   -151153.41 
   63800    197.53266   -119.75666      2204118          147  0.007193656   -151626.61    -151159.1 
   63900    196.56857    -40.58928      2204118          147  0.007193656   -151621.17   -151155.94 
   64000    192.99791    154.98773      2204118          147  0.007193656   -151611.35   -151154.57 
   64100    206.89292   -37.946485      2204118          147  0.007193656   -151644.08   -151154.41 
   64200    212.19846    35.133721      2204118          147  0.007193656   -151650.86   -151148.64 
   64300    204.74682    51.953105      2204118          147  0.007193656    -151611.7   -151127.12 
   64400    208.80039   -135.33208      2204118          147  0.007193656   -151615.45   -151121.27 
   64500    206.46077    189.75611      2204118          147  0.007193656   -151639.92   -151151.28 
   64600    199.59235   -10.791493      2204118          147  0.007193656   -151643.77   -151171.38 
   64700    203.71943    90.523539      2204118          147  0.007193656   -151653.32   -151171.17 
   64800    199.85321     20.23262      2204118          147  0.007193656   -151628.91    -151155.9 
   64900    210.48415   -64.484286      2204118          147  0.007193656   -151626.41   -151128.25 
   65000    205.29003    26.065664      2204118          147  0.007193656   -151619.84   -151133.97 
   65100    199.26177     46.13288      2204118          147  0.007193656   -151642.61      -151171 
   65200    186.97778    23.010983      2204118          147  0.007193656   -151631.89   -151189.35 
   65300    192.58276   -20.153537      2204118          147  0.007193656    -151631.5   -151175.71 
   65400    200.08124   -70.084145      2204118          147  0.007193656    -151624.7   -151151.15 
   65500    210.28254    20.384329      2204118          147  0.007193656   -151631.38   -151133.69 
   65600    207.21465    52.361893      2204118          147  0.007193656   -151631.39   -151140.96 
   65700     193.7888    9.3004581      2204118          147  0.007193656   -151635.23   -151176.58 
   65800    199.80221    95.626098      2204118          147  0.007193656   -151656.97   -151184.09 
   65900    189.21859    28.502101      2204118          147  0.007193656    -151621.4   -151173.56 
   66000    201.77254   -120.98054      2204118          147  0.007193656   -151631.17   -151153.63 
   66100    206.15753    43.214825      2204118          147  0.007193656   -151628.38   -151140.45 
   66200    199.79662    4.1385748      2204118          147  0.007193656   -151618.16   -151145.29 
   66300    199.22328   -6.1299879      2204118          147  0.007193656   -151625.57   -151154.06 
   66400    205.95982   -86.521528      2204118          147  0.007193656   -151644.62   -151157.16 
   66500    198.97282    20.126699      2204118          147  0.007193656      -151628   -151157.08 
   66600     203.3625   -101.19539      2204118          147  0.007193656   -151623.34   -151142.03 
   66700    198.97648  -0.76155698      2204118          147  0.007193656   -151613.68   -151142.75 
   66800    194.18987    148.17199      2204118          147  0.007193656   -151622.63   -151163.03 
   66900    180.62602    34.226787      2204118          147  0.007193656   -151605.16   -151177.66 
   67000    200.46225   -106.90439      2204118          147  0.007193656   -151649.05   -151174.61 
   67100    205.92358    160.62925      2204118          147  0.007193656   -151625.68    -151138.3 
   67200    206.78394   -79.766118      2204118          147  0.007193656   -151621.84   -151132.43 
   67300    200.57079    88.875536      2204118          147  0.007193656   -151620.24   -151145.54 
   67400    206.98623     101.1612      2204118          147  0.007193656   -151662.12   -151172.23 
   67500    196.57484   -138.24219      2204118          147  0.007193656   -151652.93   -151187.68 
   67600    201.75323    90.752699      2204118          147  0.007193656   -151658.85   -151181.35 
   67700    192.18605   -143.90967      2204118          147  0.007193656   -151624.37   -151169.52 
   67800    192.42218     35.93471      2204118          147  0.007193656   -151600.88   -151145.47 
   67900    209.09356    54.085709      2204118          147  0.007193656   -151635.48   -151140.61 
   68000    191.91263   -28.559848      2204118          147  0.007193656   -151617.03   -151162.81 
   68100    192.82756     155.4221      2204118          147  0.007193656   -151635.22   -151178.84 
   68200    189.27774   -69.567239      2204118          147  0.007193656   -151650.27    -151202.3 
   68300    187.89617   -42.164911      2204118          147  0.007193656   -151662.14   -151217.43 
   68400    199.91593    61.376585      2204118          147  0.007193656   -151662.24   -151189.09 
   68500    197.41381   -74.595244      2204118          147  0.007193656   -151632.18   -151164.94 
   68600    202.49831    179.63311      2204118          147  0.007193656   -151629.38   -151150.11 
   68700    207.59909   -23.327503      2204118          147  0.007193656   -151633.92   -151142.58 
   68800    197.01608      51.7382      2204118          147  0.007193656    -151615.3   -151149.01 
   68900    191.43249    36.000125      2204118          147  0.007193656    -151635.5   -151182.42 
   69000    190.55799   -9.3063203      2204118          147  0.007193656   -151638.01   -151187.01 
   69100    189.90512   -40.459786      2204118          147  0.007193656   -151615.77   -151166.31 
   69200    195.03169   -14.324487      2204118          147  0.007193656   -151606.26   -151144.67 
   69300     199.9817   -90.887263      2204118          147  0.007193656   -151619.05   -151145.74 
   69400    199.09371   -17.178067      2204118          147  0.007193656   -151624.21      -151153 
   69500    207.02686    23.084903      2204118          147  0.007193656   -151655.89    -151165.9 
   69600     210.4254   -101.45214      2204118          147  0.007193656   -151683.25   -151185.22 
   69700    190.73246    99.942964      2204118          147  0.007193656   -151658.19   -151206.77 
   69800    202.66072   -137.42442      2204118          147  0.007193656   -151694.24   -151214.59 
   69900    195.29468    7.2145864      2204118          147  0.007193656   -151642.33   -151180.12 
   70000    199.19018   -22.366323      2204118          147  0.007193656   -151629.23    -151157.8 
   70100    204.44122   -69.274134      2204118          147  0.007193656   -151633.47    -151149.6 
   70200    187.26003    106.63141      2204118          147  0.007193656   -151596.41   -151153.21 
   70300     204.4084   -26.390609      2204118          147  0.007193656   -151645.01   -151161.22 
   70400    197.08193    9.0401183      2204118          147  0.007193656   -151651.04    -151184.6 
   70500    189.95369    84.840782      2204118          147  0.007193656   -151641.68    -151192.1 
   70600    206.05547    95.658419      2204118          147  0.007193656   -151651.17   -151163.48 
   70700    203.70994   -23.807959      2204118          147  0.007193656   -151625.82   -151143.68 
   70800    200.67187    53.405558      2204118          147  0.007193656   -151616.46   -151141.52 
   70900    190.50926   -15.480756      2204118          147  0.007193656   -151605.54   -151154.65 
   71000    201.59567   -69.403755      2204118          147  0.007193656   -151645.82   -151168.69 
   71100    196.57143   -10.857256      2204118          147  0.007193656   -151653.61   -151188.37 
   71200    185.62705    109.87278      2204118          147  0.007193656   -151657.93    -151218.6 
   71300    195.56751    48.741557      2204118          147  0.007193656   -151656.88   -151194.02 
   71400    204.44367    28.160755      2204118          147  0.007193656   -151652.75   -151168.88 
   71500    191.81121    82.033896      2204118          147  0.007193656   -151607.44   -151153.47 
   71600    209.04226    -110.6636      2204118          147  0.007193656   -151636.92   -151142.17 
   71700       196.16    165.30305      2204118          147  0.007193656   -151608.76    -151144.5 
   71800    204.19764   -53.952087      2204118          147  0.007193656      -151654   -151170.71 
   71900    198.27453   -98.873647      2204118          147  0.007193656   -151659.44   -151190.17 
   72000     195.2262    42.308314      2204118          147  0.007193656   -151637.93   -151175.88 
   72100    198.62377   -178.84286      2204118          147  0.007193656   -151611.42   -151141.32 
   72200    192.66209    116.40421      2204118          147  0.007193656   -151592.08   -151136.09 
   72300    204.40199   -101.16353      2204118          147  0.007193656   -151627.25   -151143.48 
   72400     201.6487    1.4410254      2204118          147  0.007193656   -151639.94   -151162.68 
   72500    207.27916    151.81862      2204118          147  0.007193656   -151676.86   -151186.28 
   72600    186.68179   -122.78773      2204118          147  0.007193656   -151642.94   -151201.11 
   72700    192.24914    41.394156      2204118          147  0.007193656   -151634.16   -151179.15 
   72800    204.46677  -0.92448177      2204118          147  0.007193656   -151630.14   -151146.22 
   72900    203.50839   -42.448256      2204118          147  0.007193656   -151620.75    -151139.1 
   73000    201.35388    93.610493      2204118          147  0.007193656   -151622.33   -151145.77 
   73100    206.80907    75.747301      2204118          147  0.007193656   -151651.87    -151162.4 
   73200    195.43266   -41.035937      2204118          147  0.007193656   -151647.17   -151184.63 
   73300    186.87888    13.990141      2204118          147  0.007193656    -151619.1   -151176.81 
   73400    195.69987   -60.326594      2204118          147  0.007193656   -151599.45   -151136.28 
   73500    197.33075    74.561044      2204118          147  0.007193656   -151591.22   -151124.19 
   73600    201.70918   -19.578818      2204118          147  0.007193656   -151621.37   -151143.97 
   73700    195.65018   -75.970282      2204118          147  0.007193656   -151626.99   -151163.93 
   73800    187.12193     35.85046      2204118          147  0.007193656   -151609.22   -151166.35 
   73900    199.94649   -218.11239      2204118          147  0.007193656   -151626.83    -151153.6 
   74000    202.44976   -44.248128      2204118          147  0.007193656   -151599.38   -151120.23 
   74100    206.00004   -14.646607      2204118          147  0.007193656   -151599.15   -151111.59 
   74200     204.8624   -22.221185      2204118          147  0.007193656   -151608.69   -151123.83 
   74300    207.86037    111.75922      2204118          147  0.007193656   -151635.91   -151143.95 
   74400    200.83708   -223.82652      2204118          147  0.007193656   -151640.54   -151165.21 
   74500    191.96607    12.624335      2204118          147  0.007193656   -151629.48   -151175.14 
   74600    212.93992    20.538259      2204118          147  0.007193656   -151664.16   -151160.18 
   74700    199.77962    -97.50944      2204118          147  0.007193656   -151601.85   -151129.02 
   74800    207.45868    169.15955      2204118          147  0.007193656   -151610.88   -151119.87 
   74900     196.5985   -119.47151      2204118          147  0.007193656   -151598.56   -151133.26 
   75000    206.71103    -79.32081      2204118          147  0.007193656   -151634.74   -151145.51 
[...]
  381700    190.66306   -26.477616      2204118          147  0.007193656   -151641.08   -151189.82 
  381800    196.29091   -126.04798      2204118          147  0.007193656   -151638.82   -151174.25 
  381900    197.34913     143.8299      2204118          147  0.007193656   -151628.37   -151161.29 
  382000    200.46829   -64.856713      2204118          147  0.007193656   -151632.56    -151158.1 
  382100    200.50524    27.667274      2204118          147  0.007193656   -151634.37   -151159.83 
  382200    188.43002    15.943904      2204118          147  0.007193656   -151616.63   -151170.66 
  382300     190.8627   -54.977275      2204118          147  0.007193656    -151639.6   -151187.87 
  382400    198.16721     95.32151      2204118          147  0.007193656   -151651.66   -151182.64 
  382500    191.77844   -8.0329224      2204118          147  0.007193656   -151602.64   -151148.75 
  382600    193.46681    7.1099729      2204118          147  0.007193656    -151596.8   -151138.91 
  382700     199.0469      117.344      2204118          147  0.007193656    -151621.5    -151150.4 
  382800    204.05261    5.7776354      2204118          147  0.007193656   -151658.68   -151175.74 
  382900    204.95123    65.245171      2204118          147  0.007193656   -151666.25   -151181.18 
  383000    200.55931     -37.1285      2204118          147  0.007193656   -151649.86   -151175.18 
  383100    199.37272   -116.61532      2204118          147  0.007193656   -151633.54   -151161.68 
  383200    198.94131    66.569364      2204118          147  0.007193656    -151623.8   -151152.95 
  383300    195.17579   -97.507957      2204118          147  0.007193656   -151618.39   -151156.45 
  383400    198.29322    35.779137      2204118          147  0.007193656   -151629.47   -151160.15 
  383500    205.91826   -34.342349      2204118          147  0.007193656   -151673.42   -151186.06 
  383600    193.60792   -70.760268      2204118          147  0.007193656   -151670.48   -151212.25 
  383700    193.78958    48.541338      2204118          147  0.007193656   -151653.05    -151194.4 
  383800    187.78042   -41.052072      2204118          147  0.007193656   -151608.55   -151164.12 
  383900    210.97614    50.865394      2204118          147  0.007193656   -151647.52   -151148.19 
  384000    205.32589    190.80829      2204118          147  0.007193656   -151639.85   -151153.89 
  384100    197.11869   -137.26683      2204118          147  0.007193656   -151643.07   -151176.54 
  384200    190.00656    45.943182      2204118          147  0.007193656   -151648.66   -151198.96 
  384300    193.92511   -42.843983      2204118          147  0.007193656   -151649.86   -151190.89 
  384400    200.86217   -54.575513      2204118          147  0.007193656   -151625.76   -151150.36 
  384500    207.15756    49.376932      2204118          147  0.007193656   -151637.75   -151147.46 
  384600    198.25083   -115.83863      2204118          147  0.007193656   -151635.42   -151166.21 
  384700    199.74826    119.10909      2204118          147  0.007193656   -151646.87   -151174.12 
  384800     192.2416   -186.71947      2204118          147  0.007193656    -151637.9   -151182.91 
  384900    188.69659     -76.8385      2204118          147  0.007193656   -151625.14   -151178.54 
  385000     204.1565   -30.818976      2204118          147  0.007193656   -151633.02   -151149.83 
  385100    206.12106    -83.21212      2204118          147  0.007193656   -151623.18   -151135.34 
  385200    205.50426     73.41416      2204118          147  0.007193656   -151630.88    -151144.5 
  385300    198.18173   -79.091918      2204118          147  0.007193656   -151650.83   -151181.78 
  385400    193.41707    148.50915      2204118          147  0.007193656   -151641.34   -151183.57 
  385500    189.58366    28.894785      2204118          147  0.007193656      -151615    -151166.3 
  385600     203.6306   -6.1501285      2204118          147  0.007193656   -151627.79   -151145.84 
  385700    203.64485    12.779938      2204118          147  0.007193656   -151627.88    -151145.9 
  385800    195.87228    16.526041      2204118          147  0.007193656    -151623.7   -151160.11 
  385900    192.41569    -16.84114      2204118          147  0.007193656   -151653.52   -151198.12 
  386000    194.99678    -37.06527      2204118          147  0.007193656   -151659.13   -151197.62 
  386100    195.52889    -60.89989      2204118          147  0.007193656   -151640.16   -151177.39 
  386200     204.6445   -29.640533      2204118          147  0.007193656    -151638.9   -151154.55 
  386300    194.94997   -65.514153      2204118          147  0.007193656   -151613.64   -151152.24 
  386400    201.26386    75.195764      2204118          147  0.007193656   -151635.39   -151159.04 
  386500    185.97152    19.327293      2204118          147  0.007193656   -151633.36   -151193.21 
  386600    187.33031   -5.1539438      2204118          147  0.007193656   -151649.84   -151206.47 
  386700    194.93407    14.209941      2204118          147  0.007193656   -151645.69   -151184.32 
  386800    208.71227   -143.54505      2204118          147  0.007193656   -151661.08   -151167.11 
  386900    209.90168    29.907626      2204118          147  0.007193656   -151651.24   -151154.46 
  387000    205.90997   -26.486033      2204118          147  0.007193656    -151633.4   -151146.06 
  387100     199.1319    29.739122      2204118          147  0.007193656   -151620.35   -151149.05 
  387200    189.51522   -18.413645      2204118          147  0.007193656   -151625.92   -151177.38 
  387300    187.88475   -25.882482      2204118          147  0.007193656   -151634.74   -151190.06 
  387400    196.85886   -81.396038      2204118          147  0.007193656   -151634.55   -151168.63 
  387500    202.33826   -64.676886      2204118          147  0.007193656   -151629.44   -151150.55 
  387600    210.10443    125.78795      2204118          147  0.007193656   -151638.79   -151141.52 
  387700    199.92433   -41.294293      2204118          147  0.007193656   -151619.54   -151146.37 
  387800    200.56116    10.805531      2204118          147  0.007193656   -151626.64   -151151.96 
  387900    194.14548    62.222193      2204118          147  0.007193656   -151622.95   -151163.45 
  388000    207.92906   -129.75103      2204118          147  0.007193656   -151662.76   -151170.64 
  388100    207.57508    42.935104      2204118          147  0.007193656   -151667.89   -151176.61 
  388200    205.09018   -74.159832      2204118          147  0.007193656   -151660.47   -151175.07 
  388300    192.20197    15.292205      2204118          147  0.007193656   -151612.42   -151157.52 
  388400    198.36759    32.695625      2204118          147  0.007193656    -151605.2   -151135.71 
  388500    205.59014   -20.215287      2204118          147  0.007193656   -151625.65   -151139.07 
  388600    191.78936    155.69196      2204118          147  0.007193656   -151623.52    -151169.6 
  388700    191.64461    20.637815      2204118          147  0.007193656   -151644.66   -151191.08 
  388800    200.41885    48.748021      2204118          147  0.007193656   -151654.69   -151180.34 
  388900    198.23727    132.89516      2204118          147  0.007193656      -151633   -151163.82 
  389000    195.39254   -116.75056      2204118          147  0.007193656   -151618.13   -151155.68 
  389100    214.20997    91.523458      2204118          147  0.007193656   -151659.09   -151152.11 
  389200    199.58345   -40.370127      2204118          147  0.007193656   -151645.05   -151172.68 
  389300      198.971   -48.688628      2204118          147  0.007193656   -151660.33   -151189.42 
  389400     192.8524    128.25059      2204118          147  0.007193656   -151643.95   -151187.51 
  389500    193.55744    28.315949      2204118          147  0.007193656   -151613.74   -151155.63 
  389600    206.75037   -75.106994      2204118          147  0.007193656   -151635.97   -151146.64 
  389700    199.74563   -4.6409452      2204118          147  0.007193656   -151629.08   -151156.33 
  389800    199.51032   -9.2273257      2204118          147  0.007193656   -151642.49    -151170.3 
  389900    196.81828   -33.301636      2204118          147  0.007193656   -151655.92    -151190.1 
  390000    184.11469   -27.946941      2204118          147  0.007193656   -151654.38   -151218.62 
  390100    182.86888    91.625048      2204118          147  0.007193656   -151646.11   -151213.31 
  390200    185.01367    75.486174      2204118          147  0.007193656   -151615.58    -151177.7 
  390300    196.00729   -49.314048      2204118          147  0.007193656   -151626.04   -151162.13 
  390400    194.47046    -90.88476      2204118          147  0.007193656   -151616.86    -151156.6 
  390500    189.54191    42.577746      2204118          147  0.007193656   -151598.62   -151150.02 
  390600    200.57103    63.658824      2204118          147  0.007193656   -151612.24   -151137.54 
  390700    199.75196     8.744373      2204118          147  0.007193656   -151608.37   -151135.61 
  390800    206.29821    94.576694      2204118          147  0.007193656   -151656.71   -151168.45 
  390900    195.57674    5.2752811      2204118          147  0.007193656   -151646.88   -151183.99 
  391000    198.78363   -51.948868      2204118          147  0.007193656   -151648.04   -151177.57 
  391100    204.08533   -30.961774      2204118          147  0.007193656   -151634.84   -151151.81 
  391200    206.40029    30.614021      2204118          147  0.007193656   -151624.99   -151136.49 
  391300    196.55818    15.260877      2204118          147  0.007193656   -151611.27   -151146.06 
  391400    204.67965   -20.995957      2204118          147  0.007193656   -151641.13    -151156.7 
  391500    201.81902   -2.9473311      2204118          147  0.007193656   -151650.49   -151172.83 
  391600    195.66491   -98.309681      2204118          147  0.007193656   -151641.25   -151178.16 
  391700    192.56405   -27.357588      2204118          147  0.007193656   -151611.52   -151155.77 
  391800    209.19894    -57.81277      2204118          147  0.007193656   -151619.77   -151124.65 
  391900    211.17074   -42.611665      2204118          147  0.007193656   -151641.37   -151141.58 
  392000    202.94368    25.659038      2204118          147  0.007193656   -151647.86   -151167.54 
  392100    201.73738   -33.949509      2204118          147  0.007193656   -151656.14   -151178.67 
  392200    197.46526    85.901015      2204118          147  0.007193656   -151645.55   -151178.19 
  392300    205.64759   -97.864889      2204118          147  0.007193656   -151638.76   -151152.04 
  392400    213.11735   -44.401726      2204118          147  0.007193656   -151623.06   -151118.66 
  392500    204.00143    142.97549      2204118          147  0.007193656   -151610.74   -151127.92 
  392600    206.50087    -59.15111      2204118          147  0.007193656   -151639.72   -151150.98 
  392700    198.65271    30.425388      2204118          147  0.007193656   -151632.68   -151162.52 
  392800    200.13074   -53.912236      2204118          147  0.007193656   -151642.81   -151169.15 
  392900    198.17072   -35.458227      2204118          147  0.007193656   -151649.67   -151180.65 
  393000    201.24512    40.595661      2204118          147  0.007193656   -151669.62   -151193.32 
  393100    187.45136   -139.64645      2204118          147  0.007193656   -151639.08   -151195.42 
  393200    207.49678    145.06369      2204118          147  0.007193656    -151656.9    -151165.8 
  393300    204.86069    4.0623304      2204118          147  0.007193656   -151635.44   -151150.58 
  393400     204.4015    28.604627      2204118          147  0.007193656   -151636.15   -151152.38 
  393500    199.85152    61.777562      2204118          147  0.007193656   -151635.72   -151162.72 
  393600    197.81111     15.15174      2204118          147  0.007193656   -151665.04   -151196.87 
  393700    198.88879    161.30642      2204118          147  0.007193656   -151670.87   -151200.15 
  393800    197.04692   -46.631393      2204118          147  0.007193656   -151641.59   -151175.22 
  393900    202.00917    31.549111      2204118          147  0.007193656   -151638.87   -151160.76 
  394000    206.67525    -85.11527      2204118          147  0.007193656   -151651.11   -151161.96 
  394100    201.86517   -14.237583      2204118          147  0.007193656    -151648.1   -151170.33 
  394200    203.12535    -55.29987      2204118          147  0.007193656   -151656.21   -151175.46 
  394300    200.02992    72.285561      2204118          147  0.007193656   -151660.99   -151187.57 
  394400    195.01066   -55.432437      2204118          147  0.007193656   -151643.64    -151182.1 
  394500    195.35315   -32.465939      2204118          147  0.007193656    -151618.8   -151156.44 
  394600     204.0266     125.6844      2204118          147  0.007193656   -151623.55   -151140.67 
  394700    204.95936   -84.783307      2204118          147  0.007193656   -151633.99    -151148.9 
  394800    196.52117    111.30811      2204118          147  0.007193656   -151652.38   -151187.27 
  394900    200.72452    24.270439      2204118          147  0.007193656   -151664.99   -151189.92 
  395000    199.70844   -84.225217      2204118          147  0.007193656   -151648.63   -151175.97 
  395100    206.98926     -62.2796      2204118          147  0.007193656   -151646.47   -151156.58 
  395200    205.67155   -66.672193      2204118          147  0.007193656   -151630.05   -151143.27 
  395300    205.29928    -27.38565      2204118          147  0.007193656   -151653.77   -151167.87 
  395400    196.28522   -55.251424      2204118          147  0.007193656   -151667.35   -151202.79 
  395500    193.26672    124.23073      2204118          147  0.007193656   -151653.27   -151195.85 
  395600    206.10049   -120.56894      2204118          147  0.007193656    -151652.5   -151164.71 
  395700    196.63516    -24.89163      2204118          147  0.007193656   -151617.64   -151152.25 
  395800    199.12052   -48.730473      2204118          147  0.007193656   -151627.16   -151155.89 
  395900    200.74589   -15.601942      2204118          147  0.007193656   -151653.73   -151178.62 
  396000    189.48638    28.911003      2204118          147  0.007193656   -151648.65   -151200.18 
  396100    197.19707   -63.671277      2204118          147  0.007193656   -151661.94   -151195.22 
  396200     203.0233    252.26128      2204118          147  0.007193656   -151629.41    -151148.9 
  396300    208.00447   -60.516108      2204118          147  0.007193656   -151637.39   -151145.09 
  396400    209.46066    -81.81637      2204118          147  0.007193656   -151649.49   -151153.75 
  396500    191.97831    167.56454      2204118          147  0.007193656   -151634.16   -151179.79 
  396600    194.01997   -95.107496      2204118          147  0.007193656   -151645.33   -151186.13 
  396700    197.99396    89.012995      2204118          147  0.007193656   -151632.25   -151163.65 
  396800    205.65787    35.800893      2204118          147  0.007193656   -151620.84   -151134.09 
  396900    208.79044   -141.72078      2204118          147  0.007193656   -151633.32   -151139.17 
  397000    204.41231    157.48616      2204118          147  0.007193656   -151641.78   -151157.98 
  397100    189.25733   -11.446165      2204118          147  0.007193656   -151624.63    -151176.7 
  397200    197.30522      -31.409      2204118          147  0.007193656    -151645.6   -151178.62 
  397300    193.84275   -27.773652      2204118          147  0.007193656   -151625.35   -151166.57 
  397400    212.41155   -70.310217      2204118          147  0.007193656   -151625.66   -151122.93 
  397500    209.56274    72.303959      2204118          147  0.007193656   -151628.26   -151132.28 
  397600    202.34088   -33.249504      2204118          147  0.007193656   -151638.48   -151159.59 
  397700    196.49872    31.186819      2204118          147  0.007193656   -151638.57   -151173.51 
  397800    191.40322   -4.8981929      2204118          147  0.007193656   -151628.07   -151175.06 
  397900    204.35755   -96.271131      2204118          147  0.007193656   -151636.77    -151153.1 
  398000    208.64254    36.868979      2204118          147  0.007193656   -151613.67   -151119.87 
  398100    209.78326    118.63583      2204118          147  0.007193656   -151621.56   -151125.05 
  398200    199.69283    105.53924      2204118          147  0.007193656   -151620.79   -151148.16 
  398300    206.12891    11.695078      2204118          147  0.007193656   -151647.97   -151160.12 
  398400    204.02178   -42.688593      2204118          147  0.007193656   -151650.24   -151167.37 
  398500    188.00635    27.143702      2204118          147  0.007193656   -151621.23   -151176.27 
  398600    192.99757    5.5999505      2204118          147  0.007193656   -151635.54   -151178.76 
  398700    207.17885    170.98342      2204118          147  0.007193656    -151658.2   -151167.86 
  398800      208.793    84.547022      2204118          147  0.007193656   -151641.31   -151147.14 
  398900    205.77944    45.975974      2204118          147  0.007193656   -151627.64   -151140.61 
  399000    204.21239   -7.4377784      2204118          147  0.007193656   -151648.33   -151165.01 
  399100     197.0659    30.901249      2204118          147  0.007193656   -151657.87   -151191.46 
  399200    191.99709    13.067957      2204118          147  0.007193656   -151637.08   -151182.67 
  399300    191.47902    142.73715      2204118          147  0.007193656   -151620.14   -151166.95 
  399400    199.38828   -85.749358      2204118          147  0.007193656   -151626.41   -151154.51 
  399500    209.48472   -79.076274      2204118          147  0.007193656      -151647    -151151.2 
  399600    203.83622   -41.322871      2204118          147  0.007193656   -151638.88   -151156.45 
  399700    202.59193   -60.790747      2204118          147  0.007193656   -151638.59    -151159.1 
  399800    197.49581    42.126321      2204118          147  0.007193656    -151626.5   -151159.08 
  399900    194.71775   -9.4162734      2204118          147  0.007193656   -151623.97   -151163.12 
  400000    187.34259   -21.224629      2204118          147  0.007193656   -151614.07   -151170.67 
  400057    199.29746    134.92521      2204118          147  0.007193656   -151643.63   -151171.94 
Loop time of 4536.19 on 16 procs for 400000 steps with 795 atoms

Performance: 1.905 ns/day, 12.601 hours/ns, 88.180 timesteps/s
100.0% CPU use with 16 MPI tasks x no OpenMP threads

MPI task timing breakdown:
Section |  min time  |  avg time  |  max time  |%varavg| %total
---------------------------------------------------------------
Pair    | 0.16538    | 1127.4     | 3703.8     |4092.4 | 24.85
Neigh   | 0.0082683  | 1.004      | 2.0738     |  99.3 |  0.02
Comm    | 0.1969     | 643.35     | 2540.1     |3667.2 | 14.18
Output  | 0.28753    | 0.30022    | 0.35796    |   2.8 |  0.01
Modify  | 813.76     | 2763.5     | 4535       |3386.4 | 60.92
Other   |            | 0.6008     |            |       |  0.01

Nlocal:        49.6875 ave         209 max           0 min
Histogram: 12 0 0 0 0 0 0 0 0 4
Nghost:        161.562 ave         431 max           0 min
Histogram: 8 0 0 0 0 4 0 0 0 4
Neighs:        3065.19 ave       12931 max           0 min
Histogram: 12 0 0 0 0 0 0 0 0 4

Total # of neighbors = 49043
Ave neighs/atom = 61.689308
Neighbor list builds = 4078
Dangerous builds = 0

write_data graphene_single_layer_ReaxFF_795_C_temp_200K.data
System init for write_data ...
Total wall time: 1:15:39
