LAMMPS data file via write_data, version 29 Sep 2021, timestep = 400057

795 atoms
1 atom types

-51 96 xlo xhi
-51 96 ylo yhi
-51 51 zlo zhi

Masses

1 12.0107

Atoms # charge

3 1 4.043465045427963e-06 2.0548660993301926 0.7612757559581007 0 0 0 0
4 1 -4.344172256448564e-06 2.499561135668218 -0.3534302713637825 0 0 0 0
5 1 5.551495588479449e-06 3.7318641894583595 -0.18472731579072169 0 0 0 0
6 1 2.4699151641438544e-06 4.579587135984565 0.936733571378983 0 0 0 0
19 1 -1.5152816036194394e-06 6.041589661066439 0.9312415279698463 0 0 0 0
20 1 -4.1709489426167146e-06 6.879730807089019 -0.2555690939640053 0 0 0 0
21 1 -1.180893832664065e-06 8.012217779449783 -0.21080131113235662 0 0 0 0
22 1 9.007036883564024e-06 8.93057443827781 0.8694258171230147 0 0 0 0
23 1 -5.302494951661685e-07 10.412348444967968 0.9227860469722633 0 0 0 0
24 1 8.415000491285296e-07 11.299216440036579 -0.21713809252953634 0 0 0 0
37 1 -3.2687625527716424e-06 12.493565881773204 -0.31670456491357785 0 0 0 0
38 1 4.719942693000301e-06 13.380303927440899 0.8159656524453845 0 0 0 0
39 1 -3.588241353512378e-06 14.810013019435317 0.8725064826689695 0 0 0 0
40 1 1.4973916753202587e-06 15.832235888333049 -0.2527356274166198 0 0 0 0
41 1 -4.340052354667723e-06 16.984641109444574 -0.5016872609129869 0 0 0 0
52 1 -1.1349432535098791e-06 17.677997646709294 0.7410025810579303 0 0 0 0
53 1 2.593806136250154e-06 19.136260142508203 0.808372197149471 0 0 0 0
54 1 5.527936573906933e-07 20.040589192893925 -0.28733379176113194 0 0 0 0
55 1 -6.9703369310336605e-06 21.23933052010471 -0.2876779693509806 0 0 0 0
56 1 3.356206114038529e-06 22.087020090884558 0.8873250423858201 0 0 0 0
1 1 -2.7941756923222094e-06 -3.498941805011573 2.0237145970389143 0 0 0 0
2 1 4.53261276185668e-06 -2.4064678478113564 2.646461641632711 0 0 0 0
7 1 -3.471584933675831e-06 -1.1374387721041705 3.2552644423080794 0 0 0 0
8 1 -1.930480396643286e-06 0.26053442019763884 3.5184101881726257 0 0 0 0
13 1 3.364247608605986e-06 -0.5875633975958879 4.623374058887639 0 0 0 0
14 1 -6.39122232055922e-06 0.1504538607498616 5.859690988173084 0 0 0 0
9 1 2.6446420739664744e-06 1.7196740667532227 3.3994026469334044 0 0 0 0
10 1 -1.3184229580236184e-05 2.4531446472803022 2.165135594002083 0 0 0 0
11 1 7.46502437722063e-06 3.898209839837589 2.215507680903608 0 0 0 0
12 1 -7.870535668974554e-06 4.641418151820596 3.444773702279464 0 0 0 0
15 1 2.3796475913662185e-06 1.6648820146198295 5.844967488027739 0 0 0 0
16 1 2.7856086745950415e-06 2.4582353929846654 4.6414526419531 0 0 0 0
17 1 2.2943412866377466e-06 3.8696424176961837 4.68270907443045 0 0 0 0
18 1 -4.943198197056298e-06 4.6144784007449555 5.952564912401338 0 0 0 0
25 1 6.6933621093445694e-06 6.0706869862653114 3.4385216672266115 0 0 0 0
31 1 2.816287691588537e-06 6.047122585394119 5.92511117121659 0 0 0 0
26 1 -5.468042878955387e-06 6.778952920505228 2.1912650625095886 0 0 0 0
32 1 -6.67798328728153e-06 6.788891107276898 4.676073589813851 0 0 0 0
27 1 -8.048938527627225e-07 8.21726523307288 2.127476138092475 0 0 0 0
28 1 -2.965644020046232e-06 8.927039170503996 3.4002526466448013 0 0 0 0
29 1 2.3950393642641066e-07 10.396289060484069 3.338182501143439 0 0 0 0
30 1 -3.4118231316687675e-06 11.158425952807393 2.1187521740102953 0 0 0 0
33 1 4.602081849762463e-06 8.253266301084544 4.6702436309753965 0 0 0 0
34 1 -8.543039728095558e-06 8.990823709041164 5.893536537448929 0 0 0 0
35 1 1.2797996295395297e-05 10.419276281799844 5.803953603151994 0 0 0 0
36 1 -4.361337527791775e-06 11.15831580064758 4.563840160130951 0 0 0 0
42 1 2.3162307734025944e-06 12.617475228418618 2.056099078819992 0 0 0 0
43 1 -2.3531638623855433e-06 13.347433495680134 3.286291791918953 0 0 0 0
44 1 1.670345857109068e-06 14.779750705835164 3.303917914785698 0 0 0 0
45 1 -9.905994105795235e-07 15.55783145314761 2.0610445503349784 0 0 0 0
46 1 3.323681847106075e-08 17.013375769545366 2.0877437144991755 0 0 0 0
47 1 4.483885511143149e-06 12.607122331087973 4.562215678815737 0 0 0 0
48 1 -5.102530367506741e-06 13.286306984338871 5.800555527552717 0 0 0 0
49 1 9.115447501067964e-06 14.735918767509949 5.784830625968559 0 0 0 0
50 1 -7.737750784976571e-06 15.48793547662986 4.569759672722278 0 0 0 0
51 1 4.871707143125348e-06 16.949425731141304 4.5754937285328285 0 0 0 0
58 1 1.116182827803902e-06 17.662759288016062 3.3081250786598497 0 0 0 0
59 1 1.388027143049697e-06 19.12160560291728 3.340477376584943 0 0 0 0
60 1 2.873486863660957e-07 19.818507447461798 2.1065114419935345 0 0 0 0
61 1 -2.8576432071873714e-06 21.27490965991705 2.0774708514128157 0 0 0 0
62 1 -8.588656066906009e-06 22.001499453818642 3.323443126626073 0 0 0 0
64 1 -5.8913890937928315e-06 17.66954465908209 5.8380890579605875 0 0 0 0
65 1 1.1949649322724742e-05 19.10807872547571 5.86237775330536 0 0 0 0
66 1 -8.868443766948952e-06 19.81482249048865 4.62631192973495 0 0 0 0
67 1 1.1241622234509085e-05 21.268863860414353 4.586701462997821 0 0 0 0
68 1 -5.815676216949783e-06 21.991847446255086 5.864202520147415 0 0 0 0
130 1 2.036636439620154e-06 -0.027760600210412528 7.169134448081481 0 0 0 0
131 1 1.6436034042041636e-06 0.23450947655003856 8.502650915244832 0 0 0 0
136 1 -1.1361109137908443e-06 -0.12856856342509704 9.780693928811418 0 0 0 0
137 1 1.0830789704124877e-06 0.15727244132562118 11.076664046184304 0 0 0 0
132 1 4.2469825134415495e-06 1.770169898374041 8.349800826314405 0 0 0 0
133 1 -6.478723905731232e-06 2.421704965527066 7.087578150096154 0 0 0 0
134 1 5.096129207848854e-06 3.8847805164184464 7.191074239580166 0 0 0 0
135 1 -2.9068979012086826e-06 4.61492889144317 8.431517299904323 0 0 0 0
138 1 -3.6872920221447947e-06 1.6950492269713004 10.887842816779392 0 0 0 0
139 1 4.116434608028574e-06 2.453779174928882 9.646951868604688 0 0 0 0
140 1 2.7199322273629978e-08 3.8651754959141416 9.659325624916173 0 0 0 0
141 1 1.5480580236731933e-06 4.605598089989484 10.930705342396523 0 0 0 0
145 1 -3.908223487683604e-07 6.0799399451122325 8.393321261502322 0 0 0 0
151 1 4.4045484638918775e-06 6.038579804906142 10.865791539850761 0 0 0 0
152 1 -3.81537079370553e-06 6.773172925017537 9.624201782129342 0 0 0 0
146 1 -1.1987252079223576e-06 6.834071151510251 7.146883014179845 0 0 0 0
147 1 1.7509042287908172e-06 8.28407786663399 7.152484730672274 0 0 0 0
148 1 -5.4966234029479866e-06 8.993052412816143 8.409757817506527 0 0 0 0
149 1 7.814341302321559e-06 10.460383130104756 8.32210000347821 0 0 0 0
150 1 -7.4347352479603446e-06 11.188173860297526 7.049521292604892 0 0 0 0
153 1 5.843004750663572e-06 8.248228336293028 9.626373834924912 0 0 0 0
154 1 -1.6370057961678786e-06 8.991762312973556 10.854002797680115 0 0 0 0
155 1 2.1235523369328435e-06 10.428034492596886 10.840985415200088 0 0 0 0
156 1 -5.3765537924369e-06 11.12855504776703 9.56391982984915 0 0 0 0
160 1 9.885755749346192e-06 12.624906824856563 7.071987613679995 0 0 0 0
161 1 -1.0566147862760278e-05 13.347519602477064 8.34140799317543 0 0 0 0
162 1 1.2624410539674447e-05 14.736557345685826 8.315766460169346 0 0 0 0
163 1 -1.0832909474095542e-05 15.451231125318799 7.042397401902573 0 0 0 0
164 1 7.03280513407456e-06 16.910014135418105 7.045979628518427 0 0 0 0
165 1 6.750851351877696e-06 12.56165601662249 9.62089174253081 0 0 0 0
166 1 -7.600065174216686e-06 13.307993417698961 10.807397685739678 0 0 0 0
167 1 9.78798227013744e-06 14.762077674081171 10.810003663223538 0 0 0 0
168 1 -9.369206212209158e-06 15.485711043848005 9.57320682054129 0 0 0 0
169 1 6.5716606828525315e-06 16.94000539219863 9.564565078638388 0 0 0 0
173 1 -1.004232937838051e-05 17.638208413356626 8.296060393505709 0 0 0 0
174 1 8.693348713131877e-06 19.06887727278007 8.306477913255403 0 0 0 0
175 1 -1.0586022680870999e-05 19.87221488388333 7.115433179573276 0 0 0 0
176 1 6.0599281708623165e-06 21.313233923669614 7.127360655360109 0 0 0 0
177 1 -3.2573107447420035e-06 22.05557016226469 8.381078366399061 0 0 0 0
179 1 -8.701739133427921e-06 17.66564706238067 10.79838091295871 0 0 0 0
180 1 6.5077344232056245e-06 19.10590396879891 10.821239725101407 0 0 0 0
181 1 -9.027225085951607e-06 19.807656490620413 9.556005384682253 0 0 0 0
182 1 5.5029628106689765e-06 21.24589355204916 9.597931738476676 0 0 0 0
183 1 -5.041002024468166e-06 21.988780213982405 10.824227514352314 0 0 0 0
142 1 -6.913515442352747e-07 -0.16502619044060024 12.40274832993994 0 0 0 0
237 1 1.2302438960141299e-05 0.187703568283457 13.678092223198977 0 0 0 0
240 1 -2.3889306414726086e-05 -0.17214824456844618 15.039946523013299 0 0 0 0
241 1 2.2297442862806438e-05 0.15985574960221788 16.221985779386596 0 0 0 0
143 1 -2.5902828380414133e-06 2.4054518630029933 12.13385854112694 0 0 0 0
144 1 -3.5801983076511057e-06 3.879719728472328 12.166473976487369 0 0 0 0
238 1 -1.3864652555414803e-06 1.699349402239568 13.383022305296453 0 0 0 0
239 1 5.022212921645952e-07 4.628080567507397 13.386617619410709 0 0 0 0
242 1 -1.369930375431927e-05 1.7366625123103898 15.850413743973053 0 0 0 0
243 1 8.738382689860158e-06 2.4675330014047088 14.618839458645214 0 0 0 0
244 1 -4.695267890979238e-06 3.908647807235418 14.613581839574055 0 0 0 0
245 1 -8.811734892380518e-07 4.640626589976428 15.880850269229057 0 0 0 0
250 1 -8.671797437839746e-07 3.923710801085338 17.08630331942969 0 0 0 0
252 1 1.5086238140740726e-06 6.099701987258734 13.323334041382289 0 0 0 0
255 1 3.0013023166533537e-06 6.099503004867611 15.872632701025994 0 0 0 0
249 1 7.540720992224581e-06 2.464118047510622 17.062028272483953 0 0 0 0
256 1 -1.311894796247881e-06 6.78760367785505 14.5909738615937 0 0 0 0
157 1 -2.2447426976796025e-06 6.818475282617414 12.098683480589443 0 0 0 0
159 1 -5.963814004396328e-06 11.141114859779917 12.109938143561616 0 0 0 0
158 1 -9.049994529469751e-07 8.253988508268499 12.109149447520046 0 0 0 0
253 1 8.546087296237848e-07 8.96053091741916 13.382108493881944 0 0 0 0
254 1 4.266993079309056e-06 10.403061058329353 13.333763492875516 0 0 0 0
257 1 1.2693662906765324e-06 8.22897009280015 14.585785795902462 0 0 0 0
258 1 3.207156234474873e-07 8.998957232203885 15.824844574713634 0 0 0 0
259 1 1.5738253311692318e-07 10.43928602277524 15.83506321063367 0 0 0 0
260 1 -2.811623854535872e-06 11.183365189138781 14.586009730578196 0 0 0 0
263 1 1.5281125333582724e-06 8.306756311941209 17.078344399605225 0 0 0 0
266 1 1.994370964659986e-06 11.199210408671826 17.039673983141828 0 0 0 0
262 1 -2.9758646797467536e-06 6.83603654730005 17.08842815231079 0 0 0 0
170 1 6.50815050527026e-06 12.573730532880298 12.071067032432483 0 0 0 0
171 1 -7.172217917558732e-06 15.485086836243449 12.047629583984195 0 0 0 0
172 1 1.0162099715237127e-05 16.91292299264734 12.032234541104742 0 0 0 0
267 1 -1.4270333356034004e-06 13.304433560510581 13.317331121161708 0 0 0 0
268 1 3.0891087193785083e-06 14.762775040376875 13.33058774063871 0 0 0 0
269 1 2.6814030382252274e-06 12.630219363402755 14.573929580633008 0 0 0 0
270 1 -2.1126742112895225e-06 13.335062436688926 15.833619822441788 0 0 0 0
271 1 5.468229694105542e-06 14.780954505225276 15.814290536933886 0 0 0 0
272 1 -5.081585988039872e-06 15.48414937113739 14.551310866366672 0 0 0 0
273 1 6.692213149549209e-06 16.96291582347074 14.53036518752405 0 0 0 0
274 1 -4.2151191108341646e-07 12.625033289895246 17.09812293797819 0 0 0 0
277 1 -6.026694714930669e-06 15.565430364430258 16.984812945526933 0 0 0 0
278 1 3.917766744479523e-06 16.996103612617446 17.006047609264456 0 0 0 0
185 1 -2.9407805890169225e-06 19.827643659550013 12.048632292642761 0 0 0 0
186 1 4.028028017605267e-06 21.292865100334637 12.079742502418117 0 0 0 0
279 1 -5.651574794929282e-06 17.67105586869845 13.278165176652273 0 0 0 0
280 1 4.859092940144583e-06 19.10320378719744 13.311130858293094 0 0 0 0
281 1 -5.3552150505106755e-06 21.97511605892881 13.335641382457675 0 0 0 0
283 1 -5.343974979643562e-06 17.720216484271628 15.777397095995815 0 0 0 0
284 1 4.991295216263958e-06 19.152951363432837 15.835386499137954 0 0 0 0
285 1 -4.607936550667102e-06 19.841363758717996 14.5811925660464 0 0 0 0
286 1 7.006322584615643e-06 21.266330174695558 14.626071611164752 0 0 0 0
287 1 -6.30636523007988e-06 22.00113169434887 15.860665633052296 0 0 0 0
292 1 4.406375397225659e-06 21.323016251974973 17.147033846295813 0 0 0 0
291 1 -4.470454055827133e-06 19.861401551883976 17.127886085575664 0 0 0 0
246 1 -9.36378645921554e-06 -0.18085042984787755 17.628800800496446 0 0 0 0
247 1 1.2664167861171916e-05 0.3384534909982729 18.72172627998327 0 0 0 0
345 1 -1.0378234458569002e-05 -0.03597058849563668 20.174178026141337 0 0 0 0
346 1 4.128088143578318e-06 0.16396459538105324 21.378355664900106 0 0 0 0
248 1 -1.938672082972548e-07 1.8008314452171557 18.3572942455734 0 0 0 0
251 1 1.5028989027582318e-06 4.645570050735217 18.37190788482258 0 0 0 0
261 1 1.8097894288332528e-06 6.083457372110738 18.3226540863966 0 0 0 0
347 1 -1.3112468903328511e-05 1.753819532446467 20.884578783579716 0 0 0 0
348 1 6.725355135295263e-08 2.4780383360433764 19.65847548052696 0 0 0 0
349 1 3.952006549449993e-06 3.9477282587241787 19.620733837053645 0 0 0 0
350 1 -4.702886274361717e-06 4.739643572316223 20.802995422178757 0 0 0 0
354 1 4.410065811213948e-06 2.586661845493089 22.052437431346817 0 0 0 0
355 1 3.7257662547640624e-06 4.037064879670275 22.065242646957042 0 0 0 0
360 1 2.599052189737605e-06 6.181120069280611 20.799197982188048 0 0 0 0
367 1 -5.936464771358341e-07 6.924424163700331 22.0361311405638 0 0 0 0
264 1 -7.031897959683397e-07 9.057555219651515 18.316980610031067 0 0 0 0
265 1 8.48551786281071e-07 10.464228882477633 18.294437499465502 0 0 0 0
361 1 2.4402416649166314e-07 6.878768334426382 19.53179705433442 0 0 0 0
362 1 -8.614775120069362e-07 8.321299929225427 19.541656841533463 0 0 0 0
363 1 -1.7068670745551406e-07 9.064194533974538 20.809460731933772 0 0 0 0
364 1 4.084563817591258e-07 10.489054354936943 20.84649221757497 0 0 0 0
365 1 -3.675582097434349e-07 11.179671492604612 19.58461028398576 0 0 0 0
368 1 2.330515352783058e-06 8.354286902579496 22.07322302879184 0 0 0 0
371 1 2.0569814314017054e-06 11.220282192228794 22.122641443593988 0 0 0 0
275 1 -2.746273259766896e-06 13.381404452129187 18.35574734265057 0 0 0 0
276 1 3.09443808498705e-06 14.789173878695117 18.26043527030771 0 0 0 0
375 1 1.0393050578413887e-06 12.619405245858006 19.597141004185055 0 0 0 0
376 1 6.103004936697243e-07 13.364664321531361 20.825071526888323 0 0 0 0
377 1 7.181800479802436e-07 14.774731405851535 20.817899768878902 0 0 0 0
378 1 -2.0582587833481436e-06 15.47767562532639 19.506768304283995 0 0 0 0
379 1 1.1659674330269376e-06 16.92631238592538 19.539378673400858 0 0 0 0
380 1 4.3021063392267855e-07 12.666801952947278 22.105490092954213 0 0 0 0
383 1 -3.4203640038033e-06 15.48498431900363 22.07265782802027 0 0 0 0
384 1 7.574444946950587e-07 16.910579282984703 22.062407283269057 0 0 0 0
389 1 4.538290668251732e-06 19.143200197212554 20.846268803180138 0 0 0 0
390 1 -5.496951151401364e-06 19.839981069973433 19.609812993308704 0 0 0 0
391 1 9.730164970619959e-07 21.284578835215946 19.658151394590043 0 0 0 0
392 1 -7.097812648321211e-07 22.019060978981713 20.896855843473006 0 0 0 0
396 1 -2.374698898723049e-06 19.818030615282723 22.098899404727543 0 0 0 0
397 1 -9.287306285132857e-08 21.263852899596404 22.12118085362452 0 0 0 0
289 1 -3.818833926819143e-06 17.658056538373835 18.29579405694795 0 0 0 0
290 1 4.816016160202885e-06 19.13319589684192 18.31834373475519 0 0 0 0
293 1 -3.7910095782578423e-06 22.00159631094378 18.403327282410054 0 0 0 0
388 1 -3.931558379341449e-06 17.659094873479674 20.835301620312084 0 0 0 0
352 1 1.457260913377556e-06 0.5050077591356765 23.353335406627693 0 0 0 0
357 1 5.91675155733884e-06 -0.6525883980634475 24.09718301978952 0 0 0 0
452 1 -4.056517170985402e-06 0.1802134524037746 25.398861138244747 0 0 0 0
455 1 4.487986080409234e-06 -0.08735215114268621 26.572948939525833 0 0 0 0
351 1 -3.682870487409229e-06 -0.66540789711037 22.6774947820262 0 0 0 0
353 1 2.629265200976283e-06 1.9715657989313997 23.361499179980342 0 0 0 0
356 1 1.2749585466820257e-06 4.752230869062715 23.320464956465912 0 0 0 0
358 1 -5.544319496772476e-07 2.6291723734760435 24.632073079959994 0 0 0 0
359 1 -4.900466694511552e-06 4.086051874645315 24.597541928707763 0 0 0 0
366 1 -3.1881877679759696e-06 6.194339863231437 23.30901479296948 0 0 0 0
453 1 -2.683883720506347e-06 1.821319926345166 25.841679752662014 0 0 0 0
454 1 1.0730538400824385e-06 4.7805154084853125 25.867907219030744 0 0 0 0
458 1 -4.192083462722929e-06 2.5754299165241674 27.026599133866114 0 0 0 0
459 1 1.0468994187523561e-06 4.023305009633176 27.115997612902035 0 0 0 0
467 1 -4.6042056257855624e-07 6.222546740533527 25.840813122489468 0 0 0 0
369 1 -9.672318720538309e-07 9.0093994383946 23.345493665143596 0 0 0 0
370 1 -8.026309711306467e-08 10.496095356229931 23.355441589451132 0 0 0 0
372 1 -2.3063456969923957e-07 6.897870065610325 24.561936099127884 0 0 0 0
373 1 1.269238672163553e-06 8.344887237544985 24.62131365531328 0 0 0 0
374 1 -7.030788424650103e-07 11.189812146386705 24.604098606859235 0 0 0 0
468 1 -2.6087432308738445e-06 9.078344133464872 25.87053411472173 0 0 0 0
469 1 2.3790100652301693e-06 10.505941042559515 25.884347226938385 0 0 0 0
471 1 -9.197738493060825e-07 6.909790413573411 27.104308021974592 0 0 0 0
472 1 -1.0618073443754983e-06 8.360685878849871 27.13800501017852 0 0 0 0
475 1 -4.7027480346503725e-06 11.284207391612702 27.117359805073935 0 0 0 0
381 1 -1.4154250782966171e-06 13.351179414491158 23.36408376750711 0 0 0 0
382 1 2.6153605278619874e-06 14.809570686651828 23.319230777340934 0 0 0 0
385 1 1.3589661714899504e-06 12.652361680883432 24.615184267186702 0 0 0 0
386 1 8.04557161213082e-07 15.56608169804161 24.573302740574686 0 0 0 0
387 1 7.583918948880775e-07 17.01464439836499 24.60120394684717 0 0 0 0
482 1 7.86273217527611e-07 13.403475499009657 25.843176409203565 0 0 0 0
483 1 -2.383584995331589e-06 14.856106592147265 25.81151645203231 0 0 0 0
484 1 2.636031971592345e-07 12.710055907085684 27.137756681618516 0 0 0 0
487 1 2.923973396559698e-06 15.550701758454581 27.092510802715164 0 0 0 0
488 1 4.7267489708402444e-07 17.00568865581701 27.071764557742444 0 0 0 0
394 1 1.5016545769283574e-06 17.648508844276762 23.349625300407943 0 0 0 0
395 1 -1.1760324088241902e-06 19.108887047332804 23.359049509146963 0 0 0 0
398 1 -1.8139784288620509e-06 22.044381812862476 23.33495768616229 0 0 0 0
400 1 2.613144681404278e-07 19.912421716976578 24.5798579604953 0 0 0 0
401 1 9.73151948795159e-07 21.3457373179689 24.60140380143606 0 0 0 0
494 1 2.009711790942892e-07 17.762227681971545 25.847455026252945 0 0 0 0
495 1 1.1258939866740092e-06 19.207904126213677 25.837147131539002 0 0 0 0
496 1 1.7067321984726158e-06 22.043589695149436 25.868429472126582 0 0 0 0
500 1 3.305105190337665e-06 19.88432012076171 27.112669746649203 0 0 0 0
501 1 -2.631250603471469e-06 21.32819045757333 27.13212900541766 0 0 0 0
456 1 -1.7087717439346478e-05 0.299677195216528 28.01077594699302 0 0 0 0
461 1 1.0552710301925394e-05 -0.08256521635059472 29.17457271715355 0 0 0 0
462 1 -6.49786742465408e-06 0.27194396910645774 30.55229008314496 0 0 0 0
560 1 1.8038567047851117e-06 -0.06491995919604562 31.751127428031808 0 0 0 0
457 1 6.187569757030997e-06 1.828862292399243 28.314313821622942 0 0 0 0
460 1 1.540442328112901e-06 4.695806630638956 28.38683541080582 0 0 0 0
463 1 1.752355233895081e-06 1.7847058132756346 30.840109872075942 0 0 0 0
464 1 5.912891918521956e-07 2.5150162669771836 29.58397559290818 0 0 0 0
465 1 -2.9133988772162e-06 3.9346165589190756 29.627302596136563 0 0 0 0
466 1 6.449521083452814e-06 4.6991987027478 30.87073079330796 0 0 0 0
470 1 -3.151870165696291e-07 6.147739763006821 28.35240303651045 0 0 0 0
476 1 -4.655585987618782e-06 6.136990506572383 30.855316412526793 0 0 0 0
563 1 1.5912804854079088e-06 2.471902774331902 32.12515766830155 0 0 0 0
564 1 -3.922442220478939e-06 3.898310221202049 32.04845247630373 0 0 0 0
477 1 1.1081073005361763e-06 6.898624291574487 29.59889916184923 0 0 0 0
579 1 4.858302658360125e-06 6.8479066916161315 32.07101250357894 0 0 0 0
473 1 3.1591498796113004e-07 9.093524453244507 28.367435693339555 0 0 0 0
474 1 6.334866221938129e-07 10.527255954906112 28.356041465159226 0 0 0 0
478 1 -1.0249760092756466e-07 8.336415713644184 29.618093692897677 0 0 0 0
479 1 -1.1740057471454346e-06 9.06138269226913 30.874782882037785 0 0 0 0
480 1 2.5881940698066486e-06 10.508979134698535 30.82518078499221 0 0 0 0
481 1 -1.828163938205618e-06 11.277745860329576 29.60753170364956 0 0 0 0
580 1 -2.8113473447485826e-06 8.313807871631315 32.08547201151796 0 0 0 0
583 1 1.1639577907548992e-06 11.20185127920511 32.08481438338711 0 0 0 0
485 1 -9.077658403994215e-07 13.433314048373427 28.36389667332009 0 0 0 0
486 1 -3.4338027658786796e-07 14.892321028929572 28.34250640164351 0 0 0 0
489 1 -1.0555628329397826e-06 12.709434626615597 29.648192643913543 0 0 0 0
490 1 3.1358759583002827e-06 13.4182723623157 30.864963049561844 0 0 0 0
491 1 -3.547245333100635e-06 14.87253856416598 30.87170302895166 0 0 0 0
492 1 1.7433233136868176e-06 15.606523164666385 29.62340985440129 0 0 0 0
493 1 -3.162872184006571e-06 17.02864388068317 29.583556819639924 0 0 0 0
596 1 -2.465846040730635e-06 12.647756413580732 32.12807140063631 0 0 0 0
599 1 1.5558698975154384e-06 15.481645413961221 32.17274369558186 0 0 0 0
600 1 -4.504255404498558e-06 16.946131202756487 32.141419254774505 0 0 0 0
498 1 4.192260634396094e-06 17.726169665942216 28.305568499279843 0 0 0 0
499 1 -1.8804413162640254e-06 19.15422853112627 28.36299749800214 0 0 0 0
502 1 1.445659055056281e-06 22.030258858038273 28.406647297085573 0 0 0 0
504 1 3.3381765505297034e-06 17.693415243579906 30.869181808252137 0 0 0 0
505 1 -2.9473688604106374e-06 19.141233807498008 30.914328619174043 0 0 0 0
506 1 2.8884826257374874e-06 19.81765045925036 29.660430625599197 0 0 0 0
507 1 6.76692167668469e-07 21.31681316852058 29.627212416716326 0 0 0 0
508 1 1.9952695681224597e-06 22.028027684174496 30.91377606837874 0 0 0 0
613 1 2.139962058764211e-06 19.857996947688626 32.17700205349058 0 0 0 0
614 1 -2.0545589781081897e-06 21.301512369225954 32.13687257425835 0 0 0 0
561 1 -3.9660508379529835e-06 0.19830805888747333 33.1723767920407 0 0 0 0
566 1 8.30029427695278e-06 -0.10981571445930428 34.38470080906294 0 0 0 0
567 1 -1.5921108899592806e-05 0.314205237382541 35.69550537611369 0 0 0 0
572 1 1.633842810144781e-05 0.10514790912387356 37.03186636836662 0 0 0 0
562 1 -2.0989968982469687e-06 1.7611649979774684 33.3753833881553 0 0 0 0
565 1 3.125780255679167e-06 4.684165783524176 33.28330294740372 0 0 0 0
568 1 6.667743812544674e-06 1.8587878488436282 35.78389332172921 0 0 0 0
569 1 1.8610500788912576e-06 2.581395873327957 34.53033774410704 0 0 0 0
570 1 -5.713366940371389e-06 4.032211914719198 34.563537512370246 0 0 0 0
571 1 6.750646226905133e-06 4.784604265077997 35.80631189587734 0 0 0 0
575 1 -9.996691566489802e-06 2.5945981626856436 37.01814764241207 0 0 0 0
576 1 8.462918679938425e-07 4.024924905720578 37.056349927427895 0 0 0 0
578 1 -5.564908600992624e-06 6.141929985077406 33.34154097105252 0 0 0 0
584 1 -7.370783750626497e-06 6.194609822074215 35.86618260587611 0 0 0 0
585 1 6.058677666335999e-06 6.868285646426791 34.57169186331462 0 0 0 0
591 1 7.792953539857705e-06 6.879882610244469 37.13714321216494 0 0 0 0
581 1 2.604197557820598e-06 9.04675408592404 33.33043245391831 0 0 0 0
582 1 -2.8234336121521486e-06 10.513627578653761 33.340479882028724 0 0 0 0
586 1 -3.1813357275756182e-06 8.309646888067585 34.55481560022379 0 0 0 0
587 1 4.671934484855311e-06 9.054762756068142 35.81698989952465 0 0 0 0
588 1 -4.341822360379166e-06 10.468511311030637 35.83988344349631 0 0 0 0
589 1 2.0694097735418637e-06 11.18821729190564 34.600348390068916 0 0 0 0
592 1 -6.104672235024422e-06 8.34622066299206 37.09088936768583 0 0 0 0
595 1 3.8038772462653525e-06 11.164786073317996 37.1277504851588 0 0 0 0
597 1 2.4068850277420006e-06 13.325818161115897 33.396576110916634 0 0 0 0
598 1 -4.389078794825307e-06 14.764144736526845 33.39343947038852 0 0 0 0
601 1 -1.3136717604139703e-06 12.648201208297102 34.66777860024702 0 0 0 0
602 1 2.436560159038703e-06 13.390590432062647 35.92978846599603 0 0 0 0
603 1 -4.322906713143115e-06 14.837861209945892 35.88928574251828 0 0 0 0
604 1 6.1704185498959174e-06 15.53668918884883 34.64165452085219 0 0 0 0
605 1 -5.222650898743797e-06 16.984187744338005 34.64388132291542 0 0 0 0
606 1 -3.653179362149428e-06 12.615763064141982 37.14129484770746 0 0 0 0
609 1 5.091141511530395e-06 15.559183443863926 37.15805469188724 0 0 0 0
610 1 -4.106790186045317e-06 17.020424610198575 37.192394958227794 0 0 0 0
611 1 1.6818713566429944e-06 17.661713042037935 33.35012864958708 0 0 0 0
612 1 -2.297721496340166e-06 19.12325258728372 33.41475844838031 0 0 0 0
615 1 3.5228709536969105e-06 22.05742969921174 33.39192650486729 0 0 0 0
617 1 3.973576109053689e-06 17.67686963937077 35.88952243678345 0 0 0 0
618 1 -4.727692499512104e-06 19.10796666478276 35.884980432431895 0 0 0 0
619 1 2.715197726793628e-06 19.872914512613576 34.62476951618322 0 0 0 0
620 1 -3.4786508347067757e-06 21.304373433734128 34.65411836236613 0 0 0 0
621 1 3.832154231796225e-06 22.010467632205234 35.89035270087632 0 0 0 0
625 1 1.3041280534781263e-06 19.881863261326725 37.10600358575561 0 0 0 0
626 1 -4.4529516988120466e-06 21.320654308129733 37.16572126579241 0 0 0 0
573 1 -2.8295725098055613e-05 0.36756849432652666 38.41126164925171 0 0 0 0
689 1 2.6008752954637115e-05 -0.09360760991898519 39.715916347712984 0 0 0 0
690 1 -2.879167451570394e-05 0.2027724159665904 40.90869942808809 0 0 0 0
695 1 9.393384352837653e-06 -0.7146027705698299 42.165732624646985 0 0 0 0
701 1 6.248703035560688e-08 -0.9163567745440411 43.37557118328436 0 0 0 0
574 1 1.937781509146752e-05 1.8585412795204608 38.28056601091274 0 0 0 0
590 1 -6.816738282157397e-06 6.1465130452186925 38.365248708851944 0 0 0 0
577 1 4.08600090942568e-07 4.67459693057497 38.34354233086408 0 0 0 0
691 1 3.426843799049159e-05 1.7500368504635686 40.73747452813599 0 0 0 0
692 1 -2.7568590734800003e-05 2.595543454200604 39.53481092532024 0 0 0 0
693 1 1.637736416189306e-05 4.0161673444114045 39.61053591719524 0 0 0 0
694 1 -1.0883127447923469e-05 4.625229265486581 40.96903618904078 0 0 0 0
698 1 -3.180250837104756e-05 2.3565383284357106 41.98950558720433 0 0 0 0
699 1 2.041486003830778e-05 3.8093052551853233 42.10874645545942 0 0 0 0
704 1 -2.052562837438765e-06 6.0879363876032695 40.873886057283215 0 0 0 0
710 1 3.866152322326566e-06 6.043803446311351 43.34788830702116 0 0 0 0
697 1 2.0558376129613948e-05 1.6691899432809387 43.25063839297351 0 0 0 0
700 1 -1.2711412507564884e-05 4.545888624661247 43.42870853147794 0 0 0 0
711 1 6.115146488731849e-07 6.814269379073228 42.13818156941032 0 0 0 0
705 1 9.191347604388389e-06 6.798315780064288 39.62836633832522 0 0 0 0
593 1 5.78568843484506e-06 8.979820168063602 38.34446375775706 0 0 0 0
594 1 -2.1925837794464775e-06 10.436883692283677 38.397094349950656 0 0 0 0
706 1 -8.169762520306156e-06 8.219774068396811 39.612642225138835 0 0 0 0
707 1 6.964165252004717e-06 8.978116419042593 40.838455125967734 0 0 0 0
708 1 -9.821999494979972e-07 10.391190265966662 40.86870573161438 0 0 0 0
709 1 2.332359894018088e-06 11.146992897117675 39.63792970694521 0 0 0 0
712 1 -5.6920440383960436e-06 8.226869842479948 42.09703758644652 0 0 0 0
715 1 -2.114416209880038e-06 11.110631208480157 42.125994594920485 0 0 0 0
714 1 2.3908894396171276e-06 10.369436723956504 43.386656035548924 0 0 0 0
713 1 2.2615480484121375e-06 8.917698300677209 43.396137714502196 0 0 0 0
607 1 3.455532963228536e-06 13.346154147354914 38.35722849044787 0 0 0 0
608 1 -4.305098075065017e-06 14.818218517605784 38.39799505695379 0 0 0 0
719 1 -4.208757772579397e-06 12.617359357358511 39.60388853772346 0 0 0 0
720 1 2.6112380262441337e-06 13.286614159416564 40.82389221279797 0 0 0 0
721 1 -1.957296919451179e-06 14.774821063872743 40.831906054294 0 0 0 0
722 1 3.082675061286122e-06 15.534039839309838 39.614763077503945 0 0 0 0
723 1 -7.15414045918128e-06 17.00899282669292 39.65100296775893 0 0 0 0
724 1 -8.623737494384276e-07 12.54240194573152 42.071078792550765 0 0 0 0
727 1 2.1471420844111633e-06 15.460181079991358 42.06768580839472 0 0 0 0
728 1 -3.28139894961027e-07 16.945506936375473 42.08625805748835 0 0 0 0
725 1 2.4672960317675963e-06 13.258044336408627 43.3504047483062 0 0 0 0
726 1 -3.944201133369157e-06 14.69438133958501 43.285473576049405 0 0 0 0
623 1 5.974820375509449e-06 17.74198890785782 38.40466879046928 0 0 0 0
624 1 -2.9577073518138874e-06 19.18119378553892 38.372734897587364 0 0 0 0
627 1 5.210793818301307e-06 22.058429189557152 38.38667888144917 0 0 0 0
732 1 5.098031548120274e-06 17.749445942791578 40.861120165195345 0 0 0 0
733 1 -7.216524018562043e-06 19.18837943956639 40.8954517309979 0 0 0 0
734 1 3.7779094510040356e-06 19.895695184607046 39.64008411860721 0 0 0 0
735 1 -2.002598054315352e-06 21.313766660057535 39.64090649816577 0 0 0 0
736 1 3.972377415083217e-06 22.0375484123696 40.91355542366795 0 0 0 0
740 1 5.3625861030151545e-06 19.894453094387814 42.16513916958302 0 0 0 0
741 1 -7.520712996464396e-06 21.32615204726344 42.183296060376364 0 0 0 0
739 1 -3.487480625695427e-06 19.067979298124566 43.36741911342774 0 0 0 0
738 1 3.226052656273709e-06 17.60214856663589 43.37558959056342 0 0 0 0
696 1 -1.1333382226703936e-05 0.327191223463974 43.57571666625263 0 0 0 0
702 1 -1.8976981767573897e-05 2.6703088526684384 44.36900744498837 0 0 0 0
703 1 1.7888163635015886e-05 3.840898802235205 44.63635684614435 0 0 0 0
716 1 -6.036785527158139e-07 6.884506542453096 44.48534399606321 0 0 0 0
717 1 -2.871232398476975e-06 8.078592817839214 44.55493965070482 0 0 0 0
718 1 -3.3011274139932434e-06 11.322497576436211 44.472076709679776 0 0 0 0
729 1 1.5627893720782104e-06 12.46065024112653 44.588442029489784 0 0 0 0
730 1 2.2174444254258185e-06 15.547707415483655 44.478949375734956 0 0 0 0
731 1 -1.6864551130452154e-06 16.73918913534839 44.50567884588772 0 0 0 0