
# System definition
read_data graphene_single_layer_x-45_y-45_795_C.data
Reading data file ...
  orthogonal box = (-51.000000 -51.000000 -51.000000) to (96.000000 96.000000 51.000000)
  2 by 4 by 2 MPI processor grid
  reading atoms ...
  795 atoms
  read_data CPU = 0.026 seconds

pair_style reax/c NULL
pair_coeff * * ffield.reax.cho C
Reading potential file ffield.reax.cho with DATE: 2011-02-18
fix qeq_reax all qeq/reax 1 0.0 10.0 1.0e-6 reax/c


# Minimization
timestep 0.25
min_style cg
thermo 100
thermo_style custom step temp press vol lx density pe etotal
dump 2 all custom 1000 graphene_single_layer_ReaxFF_795_C_temp_100K.lammpstrj id type x y z
minimize 1.0e-6 1.0e-6 100 1000

CITE-CITE-CITE-CITE-CITE-CITE-CITE-CITE-CITE-CITE-CITE-CITE-CITE

Your simulation uses code contributions which should be cited:

- pair reaxff command:

@Article{Aktulga12,
 author = {H. M. Aktulga, J. C. Fogarty, S. A. Pandit, A. Y. Grama},
 title = {Parallel reactive molecular dynamics: Numerical methods and algorithmic techniques},
 journal = {Parallel Computing},
 year =    2012,
 volume =  38,
 pages =   {245--259}
}

- fix qeq/reaxff command:

@Article{Aktulga12,
 author = {H. M. Aktulga, J. C. Fogarty, S. A. Pandit, A. Y. Grama},
 title = {Parallel reactive molecular dynamics: Numerical methods and algorithmic techniques},
 journal = {Parallel Computing},
 year =    2012,
 volume =  38,
 pages =   {245--259}
}

CITE-CITE-CITE-CITE-CITE-CITE-CITE-CITE-CITE-CITE-CITE-CITE-CITE

WARNING: Using 'neigh_modify every 1 delay 0 check yes' setting during minimization (../min.cpp:188)
Neighbor list info ...
  update every 1 steps, delay 0 steps, check yes
  max neighbors/atom: 10000, page size: 100000
  master list distance cutoff = 10.4
  ghost atom cutoff = 10.4
  binsize = 5.2, bins = 29 29 20
  2 neighbor lists, perpetual/occasional/extra = 2 0 0
  (1) pair reax/c, perpetual
      attributes: half, newton off, ghost
      pair build: half/bin/newtoff/ghost
      stencil: full/ghost/bin/3d
      bin: standard
  (2) fix qeq/reax, perpetual, copy from (1)
      attributes: half, newton off, ghost
      pair build: copy
      stencil: none
      bin: none
Per MPI rank memory allocation (min/avg/max) = 7.965 | 10.90 | 14.56 Mbytes
Step Temp Press Volume Lx Density PotEng TotEng 
       0            0    4589.6155      2204118          147  0.007193656   -142445.78   -142445.78 
      57            0    1294.9092      2204118          147  0.007193656   -150031.46   -150031.46 
Loop time of 3.34741 on 16 procs for 57 steps with 795 atoms

100.0% CPU use with 16 MPI tasks x no OpenMP threads

Minimization stats:
  Stopping criterion = energy tolerance
  Energy initial, next-to-last, final = 
     -142445.777810412  -150031.434465826  -150031.460524184
  Force two-norm initial, final = 2416.1570 1787.6736
  Force max component initial, final = 272.51119 337.29483
  Final line search alpha, max atom move = 0.00017977701 0.060637855
  Iterations, force evaluations = 57 237

MPI task timing breakdown:
Section |  min time  |  avg time  |  max time  |%varavg| %total
---------------------------------------------------------------
Pair    | 0.00014236 | 0.70265    | 2.3104     | 102.1 | 20.99
Neigh   | 2.633e-05  | 0.0015349  | 0.0031632  |   3.8 |  0.05
Comm    | 0.0002709  | 0.40033    | 1.5805     |  91.3 | 11.96
Output  | 0          | 0          | 0          |   0.0 |  0.00
Modify  | 1.0202     | 1.0227     | 1.0251     |   0.2 | 30.55
Other   |            | 1.22       |            |       | 36.45

Nlocal:        49.6875 ave         209 max           0 min
Histogram: 12 0 0 0 0 0 0 0 0 4
Nghost:        162.812 ave         432 max           0 min
Histogram: 8 0 0 0 0 4 0 0 0 4
Neighs:        3113.44 ave       13116 max           0 min
Histogram: 12 0 0 0 0 0 0 0 0 4

Total # of neighbors = 49815
Ave neighs/atom = 62.660377
Neighbor list builds = 6
Dangerous builds = 0

fix 1 all nvt temp 100.0 100.0 $(100.0*dt)
fix 1 all nvt temp 100.0 100.0 25
run 400000
Per MPI rank memory allocation (min/avg/max) = 6.841 | 9.777 | 13.44 Mbytes
Step Temp Press Volume Lx Density PotEng TotEng 
      57            0    1294.9092      2204118          147  0.007193656   -150031.46   -150031.46 
     100    119.46498    1527.3348      2204118          147  0.007193656   -150304.18   -150021.43 
     200    162.24322   -695.91196      2204118          147  0.007193656   -150586.78   -150202.79 
     300       195.48    -704.0227      2204118          147  0.007193656   -150799.17   -150336.52 
     400    258.93242   -577.11396      2204118          147  0.007193656   -151199.24   -150586.41 
     500    133.64743    1154.2256      2204118          147  0.007193656   -151188.89   -150872.58 
     600    125.72739   -685.53561      2204118          147  0.007193656   -151338.31   -151040.74 
     700    106.88253   -134.95466      2204118          147  0.007193656   -151388.22   -151135.26 
     800    110.26756    710.09865      2204118          147  0.007193656    -151496.4   -151235.42 
     900    100.18913   -559.86303      2204118          147  0.007193656    -151547.1   -151309.97 
    1000    99.517205    49.996754      2204118          147  0.007193656   -151582.77   -151347.23 
    1100    98.270913   -24.897907      2204118          147  0.007193656    -151596.7   -151364.12 
    1200    92.406817   -289.73732      2204118          147  0.007193656   -151562.63   -151343.92 
    1300    103.47865    594.20657      2204118          147  0.007193656   -151539.25   -151294.34 
    1400    97.690397    -548.8995      2204118          147  0.007193656    -151492.3   -151261.09 
    1500    105.32078    410.59509      2204118          147  0.007193656   -151517.97    -151268.7 
    1600    101.99518   -377.66293      2204118          147  0.007193656   -151555.36   -151313.96 
    1700    95.214925    158.45379      2204118          147  0.007193656   -151565.84   -151340.49 
    1800    93.264587   -107.29798      2204118          147  0.007193656   -151556.25   -151335.51 
    1900    105.09329   -123.90358      2204118          147  0.007193656   -151554.43    -151305.7 
    2000    108.17597      362.737      2204118          147  0.007193656   -151531.66   -151275.63 
    2100    110.51166   -367.73747      2204118          147  0.007193656   -151532.91   -151271.35 
    2200    99.496399    345.47667      2204118          147  0.007193656   -151533.59    -151298.1 
    2300    91.886271   -227.71406      2204118          147  0.007193656    -151550.7   -151333.22 
    2400     88.99366    230.66315      2204118          147  0.007193656   -151549.22    -151338.6 
    2500    101.91081   -19.287517      2204118          147  0.007193656   -151552.35   -151311.15 
    2600    114.34014   -57.532441      2204118          147  0.007193656   -151554.13   -151283.51 
    2700    101.42196    129.56076      2204118          147  0.007193656   -151526.16   -151286.12 
    2800    102.94302   -211.09139      2204118          147  0.007193656   -151553.79   -151310.15 
    2900    94.631244    160.82719      2204118          147  0.007193656   -151546.74   -151322.77 
    3000    104.21497   -257.49989      2204118          147  0.007193656   -151567.68   -151321.03 
    3100    98.915988    126.44009      2204118          147  0.007193656   -151542.23   -151308.12 
    3200    95.379036   -135.62912      2204118          147  0.007193656   -151516.13    -151290.4 
    3300     110.5262   -8.6976001      2204118          147  0.007193656   -151550.21   -151288.62 
    3400    99.413953    88.494039      2204118          147  0.007193656   -151545.77   -151310.49 
    3500    96.126035    -92.03748      2204118          147  0.007193656   -151556.33   -151328.82 
    3600    90.904101    162.66829      2204118          147  0.007193656   -151537.46   -151322.31 
    3700    104.45966   -203.03534      2204118          147  0.007193656   -151546.65   -151299.42 
    3800    112.72996    204.75178      2204118          147  0.007193656   -151555.91   -151289.11 
    3900    98.331034   -171.26592      2204118          147  0.007193656   -151537.26   -151304.54 
    4000    100.39758    62.782338      2204118          147  0.007193656   -151556.66   -151319.05 
    4100     94.72355   -117.73947      2204118          147  0.007193656    -151546.1   -151321.91 
    4200    103.99283   -108.69675      2204118          147  0.007193656   -151559.39   -151313.26 
    4300    106.62355    59.874457      2204118          147  0.007193656   -151552.21   -151299.86 
    4400    104.07594   -208.50012      2204118          147  0.007193656   -151538.72    -151292.4 
    4500    101.26344    104.92182      2204118          147  0.007193656   -151541.48   -151301.81 
    4600    91.183635   -132.93724      2204118          147  0.007193656    -151534.9   -151319.09 
    4700    93.490083    196.58312      2204118          147  0.007193656   -151544.89   -151323.63 
    4800    101.65606    -121.1693      2204118          147  0.007193656   -151549.52   -151308.93 
    4900    106.47619    162.19835      2204118          147  0.007193656   -151549.25   -151297.24 
    5000    98.409016    30.901292      2204118          147  0.007193656   -151541.05   -151308.14 
    5100     97.71314   -187.84861      2204118          147  0.007193656   -151557.41   -151326.14 
    5200    99.899799   -26.252413      2204118          147  0.007193656   -151567.97   -151331.53 
    5300    96.489503   -224.41295      2204118          147  0.007193656   -151550.01   -151321.64 
    5400    103.65739    149.47466      2204118          147  0.007193656   -151551.37   -151306.03 
    5500    105.23406   -195.51759      2204118          147  0.007193656   -151548.63   -151299.56 
    5600    103.01389    121.77197      2204118          147  0.007193656   -151551.02   -151307.21 
    5700    94.915165   -104.65369      2204118          147  0.007193656   -151548.81   -151324.17 
    5800    91.267378    10.334232      2204118          147  0.007193656   -151548.26   -151332.25 
    5900    99.648268   -108.80956      2204118          147  0.007193656    -151557.8   -151321.95 
    6000    104.88245   -42.295242      2204118          147  0.007193656   -151553.03    -151304.8 
    6100    101.43426   -17.220488      2204118          147  0.007193656   -151542.02   -151301.95 
    6200    100.51596   -74.348786      2204118          147  0.007193656   -151552.49   -151314.59 
    6300    95.487088    62.525088      2204118          147  0.007193656   -151550.65   -151324.66 
    6400    97.299368    1.9843891      2204118          147  0.007193656    -151552.8   -151322.52 
    6500    98.894537    35.362236      2204118          147  0.007193656   -151548.58   -151314.52 
    6600    96.409724   -23.153097      2204118          147  0.007193656   -151537.65   -151309.47 
    6700    102.88741   -10.481998      2204118          147  0.007193656   -151555.28   -151311.77 
    6800    100.48885   -28.216282      2204118          147  0.007193656   -151559.82   -151321.99 
    6900     93.92556   -2.4723432      2204118          147  0.007193656   -151551.54   -151329.24 
    7000    98.266935    13.279342      2204118          147  0.007193656   -151556.62   -151324.05 
    7100     104.3322   -36.257913      2204118          147  0.007193656    -151557.2   -151310.27 
    7200    99.765275    84.274131      2204118          147  0.007193656    -151541.9   -151305.78 
    7300    104.20234    9.6116759      2204118          147  0.007193656   -151561.26   -151314.64 
    7400     100.8098    10.109174      2204118          147  0.007193656   -151566.09    -151327.5 
    7500    100.64541   -51.736714      2204118          147  0.007193656   -151565.95   -151327.74 
    7600    98.816879    10.091437      2204118          147  0.007193656   -151552.49   -151318.61 
    7700    103.21761      101.851      2204118          147  0.007193656   -151553.26   -151308.97 
    7800    101.25379   -96.550708      2204118          147  0.007193656   -151550.74    -151311.1 
    7900    97.607733    93.502483      2204118          147  0.007193656   -151559.11   -151328.09 
    8000    96.122945   -99.601039      2204118          147  0.007193656   -151560.66   -151333.16 
    8100    94.050107    87.559312      2204118          147  0.007193656   -151550.03   -151327.44 
    8200    98.329782   -95.153153      2204118          147  0.007193656   -151551.43   -151318.71 
    8300     103.2785    33.253946      2204118          147  0.007193656   -151558.52   -151314.09 
    8400    104.55724   -56.341671      2204118          147  0.007193656   -151565.15   -151317.69 
    8500    99.909234     12.36554      2204118          147  0.007193656   -151560.57   -151324.11 
    8600    96.497636    84.238723      2204118          147  0.007193656    -151551.9   -151323.52 
    8700    98.948096    12.958224      2204118          147  0.007193656   -151555.01   -151320.83 
    8800    99.517051   -17.915264      2204118          147  0.007193656    -151555.8   -151320.27 
    8900    100.40185   -93.500724      2204118          147  0.007193656   -151564.75   -151327.12 
    9000    97.114207    90.320482      2204118          147  0.007193656    -151572.4   -151342.56 
    9100    94.563664   -53.638361      2204118          147  0.007193656   -151563.53   -151339.72 
    9200    101.93884      25.9779      2204118          147  0.007193656   -151568.23   -151326.97 
    9300    105.48011   -39.075532      2204118          147  0.007193656   -151571.24    -151321.6 
    9400    95.201451    34.491477      2204118          147  0.007193656   -151546.19   -151320.87 
    9500     100.2855   -77.669233      2204118          147  0.007193656   -151562.27   -151324.92 
    9600    97.038108   -27.649933      2204118          147  0.007193656   -151561.67   -151332.01 
    9700    101.96164   -69.883271      2204118          147  0.007193656   -151571.66   -151330.34 
    9800    95.026642    61.823042      2204118          147  0.007193656    -151553.1    -151328.2 
    9900    100.31534   -81.851372      2204118          147  0.007193656   -151564.58   -151327.15 
   10000    102.67696    13.958375      2204118          147  0.007193656   -151574.72    -151331.7 
   10100    98.856383    65.650909      2204118          147  0.007193656   -151581.51   -151347.54 
   10200    95.869666    1.2011605      2204118          147  0.007193656   -151574.13   -151347.23 
   10300    101.34152    20.111422      2204118          147  0.007193656   -151572.52   -151332.67 
   10400     105.1638   -7.8237568      2204118          147  0.007193656   -151577.53   -151328.63 
   10500     101.8725   -11.905964      2204118          147  0.007193656   -151569.21    -151328.1 
   10600     100.5895   -109.46415      2204118          147  0.007193656   -151566.09   -151328.02 
   10700    97.577637    20.968521      2204118          147  0.007193656   -151555.93   -151324.98 
   10800       99.012   -99.676842      2204118          147  0.007193656    -151563.6   -151329.27 
   10900    101.46689    79.442678      2204118          147  0.007193656   -151569.74   -151329.59 
   11000    101.56326   -73.356217      2204118          147  0.007193656   -151571.05   -151330.68 
   11100    98.023551   -54.187474      2204118          147  0.007193656   -151569.49   -151337.49 
   11200    98.442798   -119.43891      2204118          147  0.007193656   -151578.89    -151345.9 
   11300    96.002674    17.547697      2204118          147  0.007193656   -151566.41   -151339.19 
   11400    96.295923    -16.67997      2204118          147  0.007193656   -151549.83   -151321.92 
   11500    101.74792   -32.238493      2204118          147  0.007193656   -151564.61   -151323.79 
   11600    99.586871    27.994929      2204118          147  0.007193656   -151570.11   -151334.41 
   11700    97.461488   -57.811167      2204118          147  0.007193656   -151570.46   -151339.79 
   11800    100.41016    181.47313      2204118          147  0.007193656   -151570.85    -151333.2 
   11900    104.96971   -62.199902      2204118          147  0.007193656    -151560.6   -151312.16 
   12000    102.13592    111.30859      2204118          147  0.007193656   -151555.85   -151314.12 
   12100    105.34399   -178.18296      2204118          147  0.007193656      -151575   -151325.68 
   12200    97.187327    151.34243      2204118          147  0.007193656   -151566.35   -151336.33 
   12300    96.520003   -100.82714      2204118          147  0.007193656   -151567.45   -151339.01 
   12400    98.074963     52.22837      2204118          147  0.007193656   -151568.93   -151336.81 
   12500    105.01851   -17.393894      2204118          147  0.007193656   -151568.43   -151319.87 
   12600    105.98208    39.015565      2204118          147  0.007193656   -151562.79   -151311.96 
   12700    101.42563   -64.360626      2204118          147  0.007193656   -151562.08   -151322.03 
   12800    97.110033   -18.540321      2204118          147  0.007193656   -151563.21   -151333.37 
   12900    100.21025   -27.459275      2204118          147  0.007193656   -151574.73   -151337.56 
   13000      99.7271   -11.648053      2204118          147  0.007193656      -151572   -151335.97 
   13100    101.77282    60.224666      2204118          147  0.007193656   -151560.79   -151319.92 
   13200    101.38049   -4.4445448      2204118          147  0.007193656   -151550.44    -151310.5 
   13300    102.18577   -4.1813187      2204118          147  0.007193656   -151561.63   -151319.79 
   13400    103.76697   -170.35292      2204118          147  0.007193656   -151575.31   -151329.72 
   13500    99.379748   -12.969844      2204118          147  0.007193656   -151569.07   -151333.86 
   13600     101.0065    -120.9323      2204118          147  0.007193656   -151570.85   -151331.79 
   13700    104.85674    89.656601      2204118          147  0.007193656   -151568.42   -151320.25 
   13800    108.89505   -150.37662      2204118          147  0.007193656   -151567.76   -151310.04 
   13900    105.10847    46.814263      2204118          147  0.007193656   -151571.77      -151323 
   14000    95.950236   -50.505997      2204118          147  0.007193656    -151563.6   -151336.51 
   14100    93.511488    90.325232      2204118          147  0.007193656   -151558.96   -151337.64 
   14200    99.105954    -51.33557      2204118          147  0.007193656   -151565.64   -151331.08 
   14300    103.36306    95.361282      2204118          147  0.007193656    -151564.8   -151320.17 
   14400    101.39197   -59.407374      2204118          147  0.007193656   -151559.64   -151319.67 
   14500    105.01611    78.108531      2204118          147  0.007193656   -151586.38   -151337.83 
   14600    91.424507   -78.350105      2204118          147  0.007193656   -151562.31   -151345.93 
   14700    90.957294    90.702097      2204118          147  0.007193656   -151553.89   -151338.61 
   14800    101.54257     78.62017      2204118          147  0.007193656   -151566.05   -151325.72 
   14900    103.83068    43.194441      2204118          147  0.007193656   -151568.19   -151322.45 
   15000    104.49338    26.026096      2204118          147  0.007193656   -151576.63   -151329.32 
   15100    101.12557   -30.378851      2204118          147  0.007193656   -151576.33   -151336.99 
   15200     96.28262   -40.485551      2204118          147  0.007193656   -151564.84   -151336.96 
   15300     96.66489   -16.795274      2204118          147  0.007193656   -151562.42   -151333.64 
   15400    97.368399    115.27415      2204118          147  0.007193656   -151562.34   -151331.89 
   15500    100.94099   -84.325172      2204118          147  0.007193656   -151566.11   -151327.21 
   15600    106.42642    101.11825      2204118          147  0.007193656   -151567.92   -151316.03 
   15700    106.69864   -73.144509      2204118          147  0.007193656    -151567.8   -151315.27 
   15800    96.911312    83.307947      2204118          147  0.007193656    -151563.8   -151334.44 
   15900    101.10003   -98.592551      2204118          147  0.007193656   -151575.91   -151336.63 
   16000    98.496418    46.958705      2204118          147  0.007193656   -151564.68   -151331.56 
   16100    99.377927   -67.249407      2204118          147  0.007193656   -151559.65   -151324.45 
   16200    102.48381    36.117802      2204118          147  0.007193656   -151564.85    -151322.3 
   16300    102.70953    -4.973295      2204118          147  0.007193656   -151575.47   -151332.39 
   16400    96.250238    8.8935412      2204118          147  0.007193656   -151571.18   -151343.37 
   16500    97.601897    -31.37918      2204118          147  0.007193656   -151573.52   -151342.52 
   16600    100.88254   -79.993454      2204118          147  0.007193656   -151567.73   -151328.97 
   16700    104.09487   -39.748723      2204118          147  0.007193656   -151564.08   -151317.71 
   16800    108.62095   -102.07553      2204118          147  0.007193656   -151581.23   -151324.15 
   16900    99.294374    34.421024      2204118          147  0.007193656   -151568.55   -151333.54 
   17000    100.75812   -57.134407      2204118          147  0.007193656   -151575.42   -151336.95 
   17100    102.08731    11.419789      2204118          147  0.007193656   -151577.01    -151335.4 
   17200     101.4647   -112.43935      2204118          147  0.007193656   -151557.29   -151317.14 
   17300    104.73067    83.323236      2204118          147  0.007193656   -151562.06   -151314.19 
   17400    97.280975   -46.885602      2204118          147  0.007193656   -151557.18   -151326.94 
   17500    95.839352    32.787923      2204118          147  0.007193656   -151561.27   -151334.45 
   17600    101.04486   -6.6790913      2204118          147  0.007193656   -151572.47   -151333.32 
   17700    101.45235    22.525889      2204118          147  0.007193656   -151568.36   -151328.25 
   17800     102.4351   -64.822363      2204118          147  0.007193656   -151568.96   -151326.52 
   17900    104.92179   -35.719211      2204118          147  0.007193656   -151576.54   -151328.22 
   18000    96.949305    32.896371      2204118          147  0.007193656   -151571.63   -151342.18 
   18100    98.345642   -64.725194      2204118          147  0.007193656   -151577.84   -151345.08 
   18200    98.578756   -42.428122      2204118          147  0.007193656    -151568.7   -151335.38 
   18300    103.30422   -19.845468      2204118          147  0.007193656   -151565.82   -151321.32 
   18400    102.55921    45.353947      2204118          147  0.007193656   -151564.98   -151322.24 
   18500    99.116807   -16.701659      2204118          147  0.007193656   -151565.93   -151331.35 
   18600    101.63805    3.7633169      2204118          147  0.007193656   -151578.56      -151338 
   18700     97.39947    20.255073      2204118          147  0.007193656   -151568.76   -151338.24 
   18800    98.009365   -34.402161      2204118          147  0.007193656   -151556.72   -151324.75 
   18900    105.96403    58.001114      2204118          147  0.007193656   -151562.74   -151311.95 
   19000    102.73872   -40.316259      2204118          147  0.007193656   -151562.07   -151318.91 
   19100    102.43806    41.067364      2204118          147  0.007193656   -151574.71   -151332.26 
   19200    96.549879   -118.16578      2204118          147  0.007193656   -151567.85   -151339.34 
   19300    93.628698    117.68648      2204118          147  0.007193656   -151557.79   -151336.19 
   19400    102.02303   -62.237122      2204118          147  0.007193656   -151567.53   -151326.07 
   19500    101.36872   -31.057617      2204118          147  0.007193656   -151556.06   -151316.15 
   19600    103.07564   -89.109693      2204118          147  0.007193656   -151557.68   -151313.73 
   19700    103.03119   -12.354499      2204118          147  0.007193656   -151574.86   -151331.01 
   19800    99.898681   -141.92408      2204118          147  0.007193656   -151577.68   -151341.24 
   19900     99.63797     49.12899      2204118          147  0.007193656      -151573   -151337.18 
   20000    97.836964   -44.137405      2204118          147  0.007193656   -151560.54   -151328.98 
   20100    99.245879    3.9032518      2204118          147  0.007193656   -151551.97   -151317.08 
   20200    103.68732    28.257984      2204118          147  0.007193656   -151560.76   -151315.36 
   20300    96.714645   -110.15293      2204118          147  0.007193656   -151567.47   -151338.57 
   20400    93.576867    21.102355      2204118          147  0.007193656   -151563.28   -151341.81 
   20500    102.25069   -124.39822      2204118          147  0.007193656   -151576.17   -151334.17 
   20600    101.03935    232.97196      2204118          147  0.007193656   -151561.73   -151322.59 
   20700    101.84713   -39.688145      2204118          147  0.007193656   -151561.25    -151320.2 
   20800    99.727692    197.87551      2204118          147  0.007193656    -151569.9   -151333.87 
   20900    97.241771   -77.070193      2204118          147  0.007193656   -151569.03   -151338.88 
   21000    96.524575    72.480871      2204118          147  0.007193656   -151563.82   -151335.37 
   21100    102.02301   -82.987706      2204118          147  0.007193656   -151568.52   -151327.06 
   21200    98.220644    32.543353      2204118          147  0.007193656    -151558.7   -151326.24 
   21300    101.48833   -6.1003605      2204118          147  0.007193656   -151579.85   -151339.65 
   21400    100.07047   -59.389962      2204118          147  0.007193656   -151588.26   -151351.42 
   21500    99.768331    151.57921      2204118          147  0.007193656   -151584.05   -151347.93 
   21600     99.25326   -72.020321      2204118          147  0.007193656   -151569.34   -151334.43 
   21700    98.251981    154.22764      2204118          147  0.007193656   -151560.97   -151328.43 
   21800    103.60813   -73.335613      2204118          147  0.007193656   -151573.61    -151328.4 
   21900     103.4974    75.995888      2204118          147  0.007193656   -151579.28   -151334.32 
   22000    99.063454   -71.046231      2204118          147  0.007193656   -151583.95   -151349.49 
   22100    92.245896    137.10119      2204118          147  0.007193656    -151567.7   -151349.38 
   22200     98.39395   -122.41745      2204118          147  0.007193656    -151574.9   -151342.03 
   22300    103.45303    11.264127      2204118          147  0.007193656   -151579.04   -151334.19 
   22400    98.639295   -38.397715      2204118          147  0.007193656    -151565.4   -151331.94 
   22500    100.57851    26.737015      2204118          147  0.007193656   -151570.35   -151332.31 
   22600    101.50946   -84.888529      2204118          147  0.007193656   -151583.42   -151343.17 
   22700    96.600484    30.599456      2204118          147  0.007193656   -151579.39   -151350.76 
   22800    98.270935   -38.594022      2204118          147  0.007193656   -151577.45   -151344.86 
   22900     99.61414   -48.648591      2204118          147  0.007193656   -151564.58   -151328.82 
   23000    99.754735    27.002738      2204118          147  0.007193656   -151562.95   -151326.86 
   23100    100.18681     7.829741      2204118          147  0.007193656    -151570.2   -151333.08 
   23200    98.786184    18.795644      2204118          147  0.007193656   -151576.27   -151342.47 
   23300     99.03025    40.580205      2204118          147  0.007193656   -151576.76   -151342.38 
   23400    98.358428   -18.939134      2204118          147  0.007193656   -151571.85   -151339.06 
   23500    94.761528   -2.2498779      2204118          147  0.007193656   -151561.35   -151337.07 
   23600    104.67332   -43.366847      2204118          147  0.007193656   -151578.47   -151330.73 
   23700    106.29646   -12.947401      2204118          147  0.007193656   -151584.81   -151333.24 
   23800    101.95227    53.372484      2204118          147  0.007193656   -151593.27   -151351.97 
   23900    95.594465     61.56327      2204118          147  0.007193656   -151579.11   -151352.86 
   24000    97.034816     43.74895      2204118          147  0.007193656   -151573.05   -151343.39 
   24100    98.531297   -59.641672      2204118          147  0.007193656   -151568.84   -151335.64 
   24200    99.826899   -89.704835      2204118          147  0.007193656   -151570.69   -151334.42 
   24300    102.31035    19.580237      2204118          147  0.007193656   -151576.59   -151334.44 
   24400    98.738526   -105.81573      2204118          147  0.007193656    -151572.7   -151339.01 
   24500    101.82943    104.21837      2204118          147  0.007193656   -151583.52   -151342.51 
   24600    100.97428    -8.638493      2204118          147  0.007193656   -151583.06   -151344.07 
   24700    99.432209    8.8098301      2204118          147  0.007193656   -151572.41   -151337.08 
   24800    102.16891   -2.2222179      2204118          147  0.007193656   -151566.51    -151324.7 
   24900    102.75313    28.310659      2204118          147  0.007193656   -151568.01   -151324.82 
   25000    97.972641   -23.238586      2204118          147  0.007193656    -151570.8   -151338.92 
   25100    95.866815   -60.361875      2204118          147  0.007193656   -151572.51   -151345.62 
   25200    89.773413    13.088312      2204118          147  0.007193656   -151553.54   -151341.07 
   25300    103.12958   -96.424103      2204118          147  0.007193656   -151577.37   -151333.29 
   25400    102.87164    71.270647      2204118          147  0.007193656   -151574.61   -151331.13 
   25500    103.77064   -110.32267      2204118          147  0.007193656   -151582.96   -151337.35 
   25600    94.886554     102.4097      2204118          147  0.007193656   -151573.71   -151349.14 
   25700    93.259435   -55.609043      2204118          147  0.007193656   -151572.03    -151351.3 
   25800    103.60135    68.378609      2204118          147  0.007193656   -151581.63   -151336.43 
   25900    101.61948    20.409777      2204118          147  0.007193656   -151565.75   -151325.24 
   26000    97.924336    97.800656      2204118          147  0.007193656   -151560.86   -151329.09 
   26100    99.275215    9.3146348      2204118          147  0.007193656      -151574   -151339.04 
   26200    100.98981    85.537729      2204118          147  0.007193656   -151587.54   -151348.52 
   26300    92.522557   -65.454426      2204118          147  0.007193656   -151579.46   -151360.48 
   26400     90.70057    33.577653      2204118          147  0.007193656   -151582.91   -151368.25 
   26500    97.921862   -145.72971      2204118          147  0.007193656   -151581.83   -151350.07 
   26600    99.520531    27.972842      2204118          147  0.007193656    -151576.1   -151340.56 
   26700    99.387178   -39.456589      2204118          147  0.007193656   -151568.99   -151333.77 
   26800    108.12407    42.355468      2204118          147  0.007193656   -151582.67   -151326.77 
   26900    105.30971    27.995576      2204118          147  0.007193656   -151569.24   -151319.99 
   27000    103.78493    71.109708      2204118          147  0.007193656   -151578.81   -151333.17 
   27100    98.946554    156.20794      2204118          147  0.007193656   -151581.33   -151347.15 
   27200    97.693333   -13.767034      2204118          147  0.007193656   -151575.87   -151344.65 
   27300    102.19922    62.902049      2204118          147  0.007193656    -151576.8   -151334.92 
   27400    100.10316   -10.272022      2204118          147  0.007193656   -151564.55   -151327.63 
   27500    107.51962    13.869201      2204118          147  0.007193656   -151572.02   -151317.55 
   27600    105.37239   -110.84879      2204118          147  0.007193656   -151559.87   -151310.48 
   27700     100.1722    59.696279      2204118          147  0.007193656   -151564.38    -151327.3 
   27800    101.86769    -59.14082      2204118          147  0.007193656   -151580.83   -151339.73 
   27900    98.867138    91.970572      2204118          147  0.007193656   -151576.93   -151342.93 
   28000    100.93111   -37.140475      2204118          147  0.007193656   -151576.26   -151337.38 
   28100    105.19572    87.325788      2204118          147  0.007193656   -151576.07   -151327.09 
   28200    102.83762   -13.946883      2204118          147  0.007193656   -151568.45   -151325.06 
   28300    98.687825   -9.5462985      2204118          147  0.007193656   -151567.51   -151333.94 
   28400    100.00842    9.6887787      2204118          147  0.007193656    -151584.1    -151347.4 
   28500    96.334668   -23.680262      2204118          147  0.007193656    -151580.1    -151352.1 
   28600    99.582038    71.694431      2204118          147  0.007193656   -151574.36   -151338.68 
   28700    100.86427   -11.677765      2204118          147  0.007193656   -151571.11   -151332.38 
   28800    103.32842    63.298084      2204118          147  0.007193656   -151576.41   -151331.86 
   28900    100.35722   -22.356402      2204118          147  0.007193656   -151573.07   -151335.55 
   29000    93.513241     77.80767      2204118          147  0.007193656   -151567.95   -151346.63 
   29100    92.962789   -124.36292      2204118          147  0.007193656   -151582.67   -151362.65 
   29200    95.885871    38.898311      2204118          147  0.007193656   -151585.91   -151358.97 
   29300    100.56826   -59.964281      2204118          147  0.007193656   -151583.65   -151345.63 
   29400    96.933777    96.275439      2204118          147  0.007193656   -151568.42      -151339 
   29500    101.75084   -45.372778      2204118          147  0.007193656   -151572.28   -151331.46 
   29600    100.99474    31.889574      2204118          147  0.007193656   -151570.38   -151331.35 
   29700    97.094166   -70.539775      2204118          147  0.007193656   -151571.09    -151341.3 
   29800    97.393811    68.598048      2204118          147  0.007193656   -151582.76   -151352.25 
   29900    95.735963   -94.735494      2204118          147  0.007193656    -151581.5   -151354.92 
   30000    99.222508    23.713042      2204118          147  0.007193656   -151573.78   -151338.94 
   30100     100.4388    6.2525553      2204118          147  0.007193656   -151567.24   -151329.52 
   30200    104.09572    40.611702      2204118          147  0.007193656   -151573.25   -151326.88 
   30300    101.27043    35.114664      2204118          147  0.007193656   -151573.02   -151333.34 
   30400    100.42832    29.103468      2204118          147  0.007193656   -151587.12   -151349.43 
   30500    97.677395    34.914133      2204118          147  0.007193656    -151582.1   -151350.92 
   30600    101.55209   -23.477213      2204118          147  0.007193656   -151581.04   -151340.69 
   30700    102.93985   -18.685081      2204118          147  0.007193656    -151579.9   -151336.26 
   30800    96.445409    34.924801      2204118          147  0.007193656   -151565.73   -151337.47 
   30900    94.831637    5.2295651      2204118          147  0.007193656    -151563.2   -151338.75 
   31000    98.837004   -128.32801      2204118          147  0.007193656   -151568.27   -151334.34 
   31100    103.39078   -51.101451      2204118          147  0.007193656   -151572.37   -151327.66 
   31200    102.53535   -71.748769      2204118          147  0.007193656   -151567.48    -151324.8 
   31300    98.921225    105.97383      2204118          147  0.007193656   -151572.63   -151338.51 
   31400     97.48317    41.653988      2204118          147  0.007193656   -151576.95   -151346.23 
   31500    98.261508   -71.226319      2204118          147  0.007193656   -151576.65   -151344.09 
   31600    95.734327    92.381691      2204118          147  0.007193656   -151562.67   -151336.09 
   31700    102.73231   -2.6174341      2204118          147  0.007193656   -151557.64   -151314.49 
   31800    97.448755    27.034869      2204118          147  0.007193656   -151552.89   -151322.25 
   31900    97.267071   -95.296665      2204118          147  0.007193656    -151566.4   -151336.19 
   32000    96.292008      22.4038      2204118          147  0.007193656   -151570.51   -151342.61 
   32100    97.772232   -96.017712      2204118          147  0.007193656   -151576.24   -151344.84 
   32200    100.12066   -46.964644      2204118          147  0.007193656   -151575.32   -151338.35 
   32300      105.235   -95.012433      2204118          147  0.007193656   -151569.78   -151320.71 
   32400    105.00095    63.984343      2204118          147  0.007193656   -151571.11    -151322.6 
   32500    99.946835   -78.789082      2204118          147  0.007193656   -151570.56   -151334.01 
   32600    98.251778    53.696605      2204118          147  0.007193656   -151572.84    -151340.3 
   32700    100.29966   -29.280745      2204118          147  0.007193656   -151578.45   -151341.07 
   32800    99.052839    91.079345      2204118          147  0.007193656   -151572.86   -151338.42 
   32900    106.74781   -51.649221      2204118          147  0.007193656    -151582.9   -151330.25 
   33000    103.03167    23.735959      2204118          147  0.007193656    -151559.9   -151316.05 
   33100     104.4988   -107.88839      2204118          147  0.007193656   -151562.08   -151314.75 
   33200     100.8402    65.496532      2204118          147  0.007193656    -151571.9   -151333.24 
   33300    102.05532   -63.001961      2204118          147  0.007193656   -151581.71   -151340.17 
   33400    97.246575   -23.451906      2204118          147  0.007193656   -151572.54   -151342.38 
   33500    101.04042   -70.087966      2204118          147  0.007193656   -151578.64    -151339.5 
   33600    98.561845   -101.90467      2204118          147  0.007193656   -151562.01   -151328.74 
   33700    104.43428    52.315234      2204118          147  0.007193656   -151567.22   -151320.05 
   33800    102.41628   -59.154155      2204118          147  0.007193656   -151569.62   -151327.23 
   33900     97.44425    131.57571      2204118          147  0.007193656   -151576.64   -151346.02 
   34000    99.574017   -106.85798      2204118          147  0.007193656   -151580.24   -151344.57 
   34100    94.436216    121.37743      2204118          147  0.007193656   -151561.51      -151338 
   34200    102.87893   -114.18334      2204118          147  0.007193656   -151570.51   -151327.02 
   34300    103.91692    133.94467      2204118          147  0.007193656   -151568.72   -151322.77 
   34400    101.27751   -208.96743      2204118          147  0.007193656   -151574.06   -151334.36 
   34500    102.54683    123.42358      2204118          147  0.007193656   -151591.02   -151348.32 
   34600     97.00772   -84.409123      2204118          147  0.007193656   -151580.91   -151351.32 
   34700    99.907369    111.30865      2204118          147  0.007193656   -151576.52   -151340.06 
   34800    103.89218   -136.33792      2204118          147  0.007193656   -151575.31   -151329.42 
   34900    103.65872    137.78189      2204118          147  0.007193656   -151575.55   -151330.21 
   35000    102.67432   -58.551411      2204118          147  0.007193656   -151578.58   -151335.58 
   35100    98.523933    169.51599      2204118          147  0.007193656   -151574.92   -151341.74 
   35200    95.297979   -93.434461      2204118          147  0.007193656   -151565.58   -151340.04 
   35300    100.14001    30.693453      2204118          147  0.007193656   -151559.75   -151322.74 
   35400    102.77344   -89.794563      2204118          147  0.007193656   -151563.66   -151320.42 
   35500    100.27057    15.636349      2204118          147  0.007193656   -151574.55   -151337.24 
   35600    99.823875   -60.970664      2204118          147  0.007193656   -151579.66    -151343.4 
   35700    100.65772   -57.354831      2204118          147  0.007193656   -151579.47   -151341.24 
   35800    104.07774   -34.408442      2204118          147  0.007193656   -151580.29   -151333.96 
   35900    100.88323    44.087617      2204118          147  0.007193656   -151563.63   -151324.86 
   36000    105.69192   -61.500657      2204118          147  0.007193656   -151567.16   -151317.01 
   36100    102.84906    51.359782      2204118          147  0.007193656   -151571.41   -151327.99 
   36200    102.96403    35.985701      2204118          147  0.007193656   -151586.34   -151342.64 
   36300    95.269806    44.912931      2204118          147  0.007193656   -151570.94   -151345.46 
   36400    102.87185    116.21712      2204118          147  0.007193656   -151582.92   -151339.45 
   36500    107.97051   -66.860906      2204118          147  0.007193656   -151581.33   -151325.79 
   36600     101.7823    38.204986      2204118          147  0.007193656   -151562.61   -151321.72 
   36700     99.35642   -65.050113      2204118          147  0.007193656   -151575.79   -151340.64 
   36800    92.815741 0.0036945212      2204118          147  0.007193656   -151569.91   -151350.24 
   36900    96.265033   -170.70642      2204118          147  0.007193656   -151570.49   -151342.66 
   37000    96.219016    70.433236      2204118          147  0.007193656   -151559.65   -151331.93 
   37100    104.01426   -135.69271      2204118          147  0.007193656   -151574.06   -151327.88 
   37200    101.48198    105.32533      2204118          147  0.007193656   -151578.55   -151338.37 
   37300     99.44254   -105.43224      2204118          147  0.007193656   -151589.05   -151353.69 
   37400    96.650731    111.34831      2204118          147  0.007193656   -151576.28   -151347.53 
   37500    100.99064   -60.152205      2204118          147  0.007193656   -151578.38   -151339.35 
   37600    101.93029    72.565348      2204118          147  0.007193656   -151571.37   -151330.13 
   37700    104.36354   -22.463958      2204118          147  0.007193656   -151577.98   -151330.98 
   37800    96.234162    113.91631      2204118          147  0.007193656   -151568.85   -151341.08 
   37900    96.567897   -72.947938      2204118          147  0.007193656   -151592.53   -151363.98 
   38000    94.517592    78.171569      2204118          147  0.007193656   -151579.59   -151355.89 
   38100    98.746859    14.774419      2204118          147  0.007193656   -151574.05   -151340.34 
   38200    102.65624    94.391386      2204118          147  0.007193656   -151575.98   -151333.01 
   38300    102.62655   -114.75202      2204118          147  0.007193656    -151571.7    -151328.8 
   38400    99.898049    8.7956721      2204118          147  0.007193656   -151576.54   -151340.11 
   38500    98.000545   -33.395067      2204118          147  0.007193656    -151584.4   -151352.46 
   38600    94.916549    41.116596      2204118          147  0.007193656   -151573.31   -151348.66 
   38700    99.159138   -20.521775      2204118          147  0.007193656   -151578.58    -151343.9 
   38800    99.176743    32.741433      2204118          147  0.007193656    -151573.9   -151339.17 
   38900    96.010651    70.769326      2204118          147  0.007193656   -151565.55   -151338.32 
   39000    100.50322   -61.971754      2204118          147  0.007193656   -151578.03   -151340.16 
   39100    98.347473     76.61959      2204118          147  0.007193656   -151570.19   -151337.42 
   39200    101.09691   -130.02936      2204118          147  0.007193656   -151574.47    -151335.2 
   39300    97.676129    55.293115      2204118          147  0.007193656   -151566.06   -151334.89 
   39400     102.8792    -41.82221      2204118          147  0.007193656   -151583.43   -151339.94 
   39500    93.147501    50.400547      2204118          147  0.007193656   -151571.21   -151350.75 
   39600     100.6397   -91.740643      2204118          147  0.007193656   -151590.45   -151352.26 
   39700    99.338235    108.76918      2204118          147  0.007193656   -151571.82   -151336.71 
   39800    101.58408   -110.45353      2204118          147  0.007193656    -151566.2   -151325.77 
   39900    102.24073     59.55693      2204118          147  0.007193656   -151570.83   -151328.85 
   40000    98.548141    -64.90006      2204118          147  0.007193656   -151573.86   -151340.62 
   40100    92.834209    137.37828      2204118          147  0.007193656   -151570.19   -151350.47 
   40200    97.488936   -70.681281      2204118          147  0.007193656   -151580.07   -151349.33 
   40300     96.02082    36.122096      2204118          147  0.007193656   -151568.81   -151341.56 
   40400    101.62398   -65.973319      2204118          147  0.007193656   -151577.11   -151336.59 
   40500    105.71493    128.93517      2204118          147  0.007193656   -151585.02   -151334.82 
   40600     98.69054   -81.538752      2204118          147  0.007193656    -151571.2   -151337.62 
   40700    96.153602    8.1714286      2204118          147  0.007193656   -151576.59   -151349.02 
   40800    97.079338   -95.743895      2204118          147  0.007193656   -151582.17   -151352.41 
   40900    102.01836    15.527389      2204118          147  0.007193656   -151582.44   -151340.98 
   41000    99.576839   -29.004876      2204118          147  0.007193656   -151563.59   -151327.91 
   41100    104.75905    2.2361886      2204118          147  0.007193656    -151574.4   -151326.46 
   41200    101.81315    5.4086424      2204118          147  0.007193656   -151575.27    -151334.3 
   41300    96.363248     17.92254      2204118          147  0.007193656   -151571.07   -151343.01 
   41400    99.717942    103.51007      2204118          147  0.007193656   -151578.04   -151342.03 
   41500    98.757875   -25.060843      2204118          147  0.007193656   -151570.88   -151337.14 
   41600    101.18097    154.75109      2204118          147  0.007193656   -151573.49   -151334.02 
   41700    102.31858   -86.145537      2204118          147  0.007193656   -151582.61   -151340.45 
   41800    96.108482    90.204727      2204118          147  0.007193656   -151587.07    -151359.6 
   41900    97.573125   -144.39038      2204118          147  0.007193656   -151586.42   -151355.49 
   42000    95.982677    32.783116      2204118          147  0.007193656   -151567.94   -151340.77 
   42100    103.70478   -148.46912      2204118          147  0.007193656    -151578.7   -151333.25 
   42200    102.93546    79.751983      2204118          147  0.007193656    -151579.3   -151335.68 
   42300    95.683557   -130.25432      2204118          147  0.007193656   -151566.31   -151339.85 
   42400    97.648274    116.08528      2204118          147  0.007193656   -151586.51    -151355.4 
   42500    94.705133   -95.386611      2204118          147  0.007193656   -151583.06   -151358.91 
   42600    100.04279    125.08913      2204118          147  0.007193656   -151583.12   -151346.34 
   42700    105.19663   -66.481511      2204118          147  0.007193656   -151586.93   -151337.96 
   42800    99.799653    123.57447      2204118          147  0.007193656   -151573.09   -151336.89 
   42900    103.43261   -192.71922      2204118          147  0.007193656   -151584.07   -151339.27 
   43000     100.2343    106.23002      2204118          147  0.007193656   -151583.47   -151346.24 
   43100    94.437018   -73.012139      2204118          147  0.007193656   -151582.36   -151358.85 
   43200    100.22732    30.987158      2204118          147  0.007193656   -151591.39   -151354.17 
   43300    100.75098   -141.92127      2204118          147  0.007193656   -151576.31   -151337.86 
   43400    105.25184    138.17824      2204118          147  0.007193656   -151583.11   -151334.01 
   43500    99.338611    -50.18044      2204118          147  0.007193656   -151573.17   -151338.06 
   43600    99.540634    34.958685      2204118          147  0.007193656   -151582.52   -151346.93 
   43700    100.54904   -33.229387      2204118          147  0.007193656   -151590.94   -151352.97 
   43800    99.251084    16.401434      2204118          147  0.007193656    -151581.8   -151346.89 
   43900    102.14397   -25.489137      2204118          147  0.007193656   -151572.62   -151330.87 
   44000    102.65423   -26.888272      2204118          147  0.007193656   -151569.77   -151326.81 
   44100    107.15997    14.098651      2204118          147  0.007193656   -151585.61   -151331.99 
   44200    99.944224    29.877955      2204118          147  0.007193656   -151586.18   -151349.63 
   44300    94.633381    -35.35251      2204118          147  0.007193656   -151574.84   -151350.86 
   44400    101.48161    3.5004107      2204118          147  0.007193656    -151580.9   -151340.72 
   44500    94.621239   -7.3092219      2204118          147  0.007193656   -151558.32   -151334.37 
   44600    97.455612   -3.5343757      2204118          147  0.007193656   -151562.72   -151332.07 
   44700    96.895829    54.682102      2204118          147  0.007193656   -151572.77   -151343.44 
   44800    98.708915   -85.793472      2204118          147  0.007193656   -151591.48   -151357.86 
   44900    96.417504    45.080972      2204118          147  0.007193656   -151579.29   -151351.09 
   45000    97.010426   -29.009384      2204118          147  0.007193656   -151568.65   -151339.05 
   45100    101.98008    34.212018      2204118          147  0.007193656   -151576.03   -151334.67 
   45200    104.27932   -39.796059      2204118          147  0.007193656   -151578.92   -151332.11 
   45300     104.0964    8.6961916      2204118          147  0.007193656   -151583.62   -151337.24 
   45400    99.824143   -96.527101      2204118          147  0.007193656    -151585.6   -151349.34 
   45500    105.36471    70.713291      2204118          147  0.007193656   -151601.61   -151352.24 
   45600    99.476897    10.656289      2204118          147  0.007193656   -151577.45   -151342.01 
   45700    102.97962    3.6747359      2204118          147  0.007193656   -151572.36   -151328.64 
   45800    103.61892   -54.260545      2204118          147  0.007193656   -151575.13   -151329.88 
   45900    100.51361    29.656687      2204118          147  0.007193656   -151577.89      -151340 
   46000    95.367678    -30.53512      2204118          147  0.007193656   -151571.12   -151345.41 
   46100    100.34198   -15.068097      2204118          147  0.007193656   -151579.07   -151341.58 
   46200    103.74094    -36.95798      2204118          147  0.007193656   -151584.72   -151339.19 
   46300    101.38119    53.320709      2204118          147  0.007193656   -151577.57   -151337.62 
   46400    97.586287   -3.3945194      2204118          147  0.007193656   -151567.11   -151336.15 
   46500    97.815136   -72.493606      2204118          147  0.007193656   -151578.04   -151346.54 
   46600    93.683816    14.941721      2204118          147  0.007193656   -151576.98   -151355.25 
   46700    101.84307    37.349324      2204118          147  0.007193656   -151589.87   -151348.83 
   46800    100.26952    41.392734      2204118          147  0.007193656   -151567.62    -151330.3 
   46900     100.8374    -93.23416      2204118          147  0.007193656   -151566.91   -151328.25 
   47000    102.74817     20.71996      2204118          147  0.007193656   -151578.37   -151335.19 
   47100    103.52234   -21.673259      2204118          147  0.007193656   -151589.09   -151344.08 
   47200    92.968391    52.400012      2204118          147  0.007193656    -151574.7   -151354.66 
   47300    99.760387    19.877583      2204118          147  0.007193656   -151578.93   -151342.82 
   47400    102.86465    10.208512      2204118          147  0.007193656   -151569.23   -151325.78 
   47500    99.794108 -0.046206676      2204118          147  0.007193656   -151567.54   -151331.36 
   47600    97.227881    106.52716      2204118          147  0.007193656    -151572.9   -151342.79 
   47700    91.204738   -25.270203      2204118          147  0.007193656   -151565.55   -151349.69 
   47800      95.2115    105.79839      2204118          147  0.007193656   -151567.93   -151342.58 
   47900    101.92528    -13.87048      2204118          147  0.007193656   -151567.94    -151326.7 
   48000    100.17252    80.161512      2204118          147  0.007193656   -151563.03   -151325.95 
   48100     102.0059   -85.832761      2204118          147  0.007193656   -151575.31   -151333.88 
   48200    96.515999    19.478317      2204118          147  0.007193656   -151571.85   -151343.42 
   48300    99.930504   -3.9819128      2204118          147  0.007193656    -151580.4   -151343.89 
   48400    100.18403    24.547672      2204118          147  0.007193656   -151575.26   -151338.14 
   48500    96.595061    10.217889      2204118          147  0.007193656   -151565.01   -151336.39 
   48600    98.266328    62.211342      2204118          147  0.007193656   -151568.21   -151335.64 
   48700    94.676494    -15.93019      2204118          147  0.007193656   -151561.25   -151337.17 
   48800    98.542158    37.325901      2204118          147  0.007193656   -151572.84   -151339.62 
   48900    94.482798   -9.9862079      2204118          147  0.007193656   -151573.64   -151350.02 
   49000    92.156783   -77.326207      2204118          147  0.007193656   -151572.29   -151354.18 
   49100    97.225169   -92.868941      2204118          147  0.007193656   -151569.73   -151339.62 
   49200    105.53441   -13.392563      2204118          147  0.007193656   -151578.01   -151328.23 
   49300    103.12487    95.900693      2204118          147  0.007193656   -151576.45   -151332.38 
   49400    101.14859   -77.765014      2204118          147  0.007193656   -151579.95   -151340.55 
   49500    93.867431     105.8828      2204118          147  0.007193656   -151564.43   -151342.27 
   49600    103.32849   -73.827512      2204118          147  0.007193656   -151575.44   -151330.88 
   49700    103.00256     81.61198      2204118          147  0.007193656   -151560.41   -151316.63 
   49800    99.472937   -64.222286      2204118          147  0.007193656   -151559.53    -151324.1 
   49900    100.04366    90.936585      2204118          147  0.007193656   -151573.75   -151336.97 
   50000     99.67589   -2.8242591      2204118          147  0.007193656   -151576.57   -151340.66 
   50100    97.958816    69.297574      2204118          147  0.007193656   -151575.33   -151343.48 
   50200    97.629625   -75.648436      2204118          147  0.007193656   -151572.42   -151341.36 
   50300    103.28655   -66.930636      2204118          147  0.007193656   -151568.36    -151323.9 
   50400    104.67299   -27.721985      2204118          147  0.007193656   -151567.31   -151319.57 
   50500    99.795312    31.934758      2204118          147  0.007193656   -151569.89    -151333.7 
   50600    96.943978   -28.890617      2204118          147  0.007193656   -151568.15    -151338.7 
   50700    94.076472    28.756815      2204118          147  0.007193656   -151562.16    -151339.5 
   50800     95.54325   -50.682086      2204118          147  0.007193656   -151564.68   -151338.55 
   50900    103.66947   -47.563371      2204118          147  0.007193656   -151578.99   -151333.63 
   51000    102.51111    22.503676      2204118          147  0.007193656   -151568.74   -151326.12 
   51100    100.27405   -27.627014      2204118          147  0.007193656   -151566.72   -151329.39 
   51200    104.80464   -103.72818      2204118          147  0.007193656    -151589.5   -151341.45 
   51300    101.01013   -22.106899      2204118          147  0.007193656   -151588.63   -151349.56 
   51400    94.172965   -9.9112957      2204118          147  0.007193656   -151576.26   -151353.38 
   51500    102.75387   0.70809893      2204118          147  0.007193656   -151583.82   -151340.62 
   51600    100.40919    68.165796      2204118          147  0.007193656   -151564.79   -151327.15 
   51700     98.57902   -5.0487134      2204118          147  0.007193656   -151559.56   -151326.25 
   51800    98.061441    89.966131      2204118          147  0.007193656   -151569.27   -151337.18 
   51900    95.472492   -102.02465      2204118          147  0.007193656   -151574.57   -151348.61 
   52000    99.560641    31.056377      2204118          147  0.007193656    -151582.7   -151347.07 
   52100    97.882551   -118.37418      2204118          147  0.007193656   -151572.22   -151340.55 
   52200    96.498584    83.085342      2204118          147  0.007193656   -151566.42   -151338.04 
   52300    99.667142   -130.32719      2204118          147  0.007193656   -151573.57   -151337.68 
   52400    101.81694    148.55385      2204118          147  0.007193656   -151576.73   -151335.75 
   52500    104.76858   -23.961453      2204118          147  0.007193656   -151564.72   -151316.76 
   52600    107.92204    110.09292      2204118          147  0.007193656   -151569.84   -151314.42 
   52700    100.77854   -62.923297      2204118          147  0.007193656   -151568.79   -151330.27 
   52800    100.61812    13.763719      2204118          147  0.007193656   -151574.18   -151336.04 
   52900    98.707334   -159.18009      2204118          147  0.007193656   -151576.13   -151342.51 
   53000    98.472311    37.041749      2204118          147  0.007193656   -151579.06      -151346 
   53100    98.513483   -51.411556      2204118          147  0.007193656   -151577.44   -151344.28 
   53200    99.906114    87.621595      2204118          147  0.007193656   -151568.93   -151332.48 
   53300    104.95613   -87.296471      2204118          147  0.007193656   -151571.67   -151323.27 
   53400    105.11041    15.403576      2204118          147  0.007193656   -151580.33   -151331.56 
   53500    95.632566    4.2488807      2204118          147  0.007193656   -151570.85   -151344.52 
   53600    98.748109    137.03965      2204118          147  0.007193656   -151579.14   -151345.42 
   53700    97.823509   -112.59091      2204118          147  0.007193656    -151573.2   -151341.67 
   53800    95.656053    92.719311      2204118          147  0.007193656   -151562.49    -151336.1 
   53900    103.16418   -103.28581      2204118          147  0.007193656   -151576.47   -151332.31 
   54000    98.361642    53.429563      2204118          147  0.007193656   -151573.57   -151340.77 
   54100    98.307179   -131.77502      2204118          147  0.007193656   -151591.51   -151358.84 
   54200    102.62523    59.832204      2204118          147  0.007193656    -151593.7   -151350.81 
   54300    102.45715   -86.137036      2204118          147  0.007193656   -151580.15   -151337.66 
   54400    101.79641    23.842189      2204118          147  0.007193656   -151573.17   -151332.25 
   54500    103.71845   -35.291626      2204118          147  0.007193656    -151576.2   -151330.73 
   54600    93.336161    15.998965      2204118          147  0.007193656   -151563.73   -151342.82 
   54700    99.291689   -65.268911      2204118          147  0.007193656   -151591.25   -151356.25 
   54800    100.96125   -4.2114327      2204118          147  0.007193656   -151590.23   -151351.27 
   54900    96.709529    85.897114      2204118          147  0.007193656   -151568.71   -151339.83 
   55000    99.178697   -7.8459733      2204118          147  0.007193656   -151568.32   -151333.58 
   55100    102.34359   0.42885387      2204118          147  0.007193656   -151578.75   -151336.53 
   55200    96.682987   -54.140027      2204118          147  0.007193656   -151572.72   -151343.89 
   55300    98.274657    42.729177      2204118          147  0.007193656   -151583.34   -151350.74 
   55400    99.200089    -61.46387      2204118          147  0.007193656   -151580.33   -151345.54 
   55500    99.219449    85.302945      2204118          147  0.007193656   -151565.81   -151330.98 
   55600    100.69768   -12.737096      2204118          147  0.007193656   -151565.86   -151327.53 
   55700    101.68044    74.439065      2204118          147  0.007193656   -151573.45   -151332.79 
   55800    103.87541   -78.078219      2204118          147  0.007193656   -151595.22   -151349.37 
   55900    100.06722     37.06584      2204118          147  0.007193656   -151591.14   -151354.31 
   56000    99.840027    27.523542      2204118          147  0.007193656   -151583.52   -151347.22 
   56100    97.574033    15.499187      2204118          147  0.007193656   -151571.98   -151341.05 
   56200    99.214925    3.3593083      2204118          147  0.007193656   -151570.65   -151335.83 
   56300    101.42155    35.935715      2204118          147  0.007193656   -151576.99   -151336.95 
   56400    98.801352   -48.240597      2204118          147  0.007193656   -151574.27   -151340.43 
   56500     98.09699    38.051964      2204118          147  0.007193656   -151575.64   -151343.47 
   56600    97.998382   -38.887509      2204118          147  0.007193656   -151580.03   -151348.09 
   56700    99.021462    6.4820493      2204118          147  0.007193656   -151576.92   -151342.56 
   56800    98.376371   -19.107051      2204118          147  0.007193656   -151565.54   -151332.71 
   56900    100.28005   -32.228257      2204118          147  0.007193656   -151563.17   -151325.83 
   57000    105.73131   -34.203554      2204118          147  0.007193656    -151576.3   -151326.06 
   57100    101.60707   -69.018803      2204118          147  0.007193656    -151584.7   -151344.22 
   57200     101.2164    5.4684734      2204118          147  0.007193656   -151589.83   -151350.27 
   57300     99.08218   -87.154787      2204118          147  0.007193656   -151578.96   -151344.46 
   57400    100.09572    7.3887431      2204118          147  0.007193656   -151568.25   -151331.35 
   57500    101.26278   -76.831667      2204118          147  0.007193656   -151566.15   -151326.48 
   57600     103.6467    9.2497944      2204118          147  0.007193656   -151573.43   -151328.12 
   57700    103.50347   -88.986675      2204118          147  0.007193656   -151579.07    -151334.1 
   57800    99.797479    76.301566      2204118          147  0.007193656   -151577.51   -151341.31 
   57900    99.718472   -100.45884      2204118          147  0.007193656   -151578.43   -151342.42 
   58000    101.30155     97.30899      2204118          147  0.007193656   -151570.48   -151330.73 
   58100     100.2158   -104.15721      2204118          147  0.007193656    -151559.2   -151322.01 
   58200    98.203332    124.95637      2204118          147  0.007193656   -151559.74   -151327.31 
   58300    101.81634   -106.00271      2204118          147  0.007193656   -151588.93   -151347.96 
   58400    97.191152    94.657935      2204118          147  0.007193656   -151578.98   -151348.95 
   58500    97.448956   -87.476719      2204118          147  0.007193656   -151572.14    -151341.5 
   58600    102.31498    44.617723      2204118          147  0.007193656    -151571.7   -151329.54 
   58700     104.6646   -88.905965      2204118          147  0.007193656   -151573.86   -151326.15 
   58800    100.68282    85.213306      2204118          147  0.007193656   -151569.45   -151331.16 
   58900    101.13466   -102.11302      2204118          147  0.007193656   -151575.05   -151335.69 
   59000    101.13875    11.338115      2204118          147  0.007193656    -151577.8   -151338.43 
   59100    99.170936   -84.444721      2204118          147  0.007193656   -151571.46   -151336.75 
   59200    108.07656    52.872031      2204118          147  0.007193656   -151588.13   -151332.33 
   59300    101.38778   -20.283493      2204118          147  0.007193656    -151573.5   -151333.53 
   59400    102.45663    90.101047      2204118          147  0.007193656   -151585.12   -151342.63 
   59500    91.981957  -0.20816554      2204118          147  0.007193656   -151571.63   -151353.93 
   59600    97.669851    27.038899      2204118          147  0.007193656   -151580.75   -151349.59 
   59700    100.23541   -43.282893      2204118          147  0.007193656   -151571.47   -151334.24 
   59800     102.3044    63.644948      2204118          147  0.007193656   -151574.97   -151332.84 
   59900    102.84866   -57.995871      2204118          147  0.007193656   -151578.31   -151334.89 
   60000    101.23432   -38.418167      2204118          147  0.007193656   -151578.43   -151338.83 
   60100    99.609628    54.803942      2204118          147  0.007193656    -151584.7   -151348.95 
   60200    99.083745    15.620966      2204118          147  0.007193656   -151592.04   -151357.53 
   60300    94.302446   -1.0551704      2204118          147  0.007193656    -151573.5   -151350.31 
   60400    102.90736    43.490364      2204118          147  0.007193656   -151576.28   -151332.72 
   60500    105.19431    49.282289      2204118          147  0.007193656   -151579.14   -151330.17 
   60600    101.69432   -24.276783      2204118          147  0.007193656   -151574.49   -151333.81 
   60700    100.60073    77.100574      2204118          147  0.007193656   -151585.51   -151347.42 
   60800    101.07387   -1.9093216      2204118          147  0.007193656   -151587.31    -151348.1 
   60900    104.85314    18.575669      2204118          147  0.007193656   -151581.08   -151332.92 
   61000    98.852213   -64.245061      2204118          147  0.007193656   -151556.79   -151322.83 
   61100     99.26318     93.34689      2204118          147  0.007193656   -151560.83    -151325.9 
   61200    101.64785   -70.572909      2204118          147  0.007193656   -151574.94   -151334.36 
   61300    96.882569    18.036757      2204118          147  0.007193656   -151575.21   -151345.91 
   61400    102.30939   -96.899916      2204118          147  0.007193656   -151587.86   -151345.72 
   61500    99.261722    114.48734      2204118          147  0.007193656    -151577.6   -151342.67 
   61600    98.670122    -126.3035      2204118          147  0.007193656   -151571.55   -151338.02 
   61700    96.220537    178.68685      2204118          147  0.007193656   -151564.86   -151337.13 
   61800    98.364359   -126.99497      2204118          147  0.007193656   -151570.51    -151337.7 
   61900    98.976056    47.328451      2204118          147  0.007193656   -151571.04   -151336.79 
   62000    102.67592   -66.373908      2204118          147  0.007193656   -151571.48   -151328.47 
   62100    103.11389    25.484159      2204118          147  0.007193656   -151566.25   -151322.21 
   62200    104.38345   -1.2997258      2204118          147  0.007193656   -151578.12   -151331.07 
   62300    100.71702    5.3777967      2204118          147  0.007193656   -151584.41   -151346.04 
   62400    98.301325   -78.738797      2204118          147  0.007193656   -151579.07   -151346.41 
   62500    100.48693    51.992269      2204118          147  0.007193656   -151576.47   -151338.64 
   62600    101.91193   -1.1972322      2204118          147  0.007193656   -151572.79   -151331.59 
   62700    104.82616    45.976843      2204118          147  0.007193656   -151580.82   -151332.72 
   62800     101.0703    14.331206      2204118          147  0.007193656   -151574.67   -151335.46 
   62900      100.095   -45.436154      2204118          147  0.007193656   -151574.58   -151337.67 
   63000    99.201717    23.704069      2204118          147  0.007193656    -151572.4   -151337.61 
   63100    103.14478   -57.014881      2204118          147  0.007193656   -151575.72    -151331.6 
   63200    101.73543    21.796617      2204118          147  0.007193656    -151566.1   -151325.32 
   63300    97.795379    23.668752      2204118          147  0.007193656   -151561.88   -151330.43 
   63400    95.034901    29.227763      2204118          147  0.007193656   -151569.27   -151344.35 
   63500     96.66045   -127.68894      2204118          147  0.007193656   -151579.74   -151350.97 
   63600    93.837363   -60.930776      2204118          147  0.007193656   -151568.78   -151346.69 
   63700    96.609639   -46.650026      2204118          147  0.007193656   -151564.88   -151336.23 
   63800    101.43784    1.6308478      2204118          147  0.007193656   -151573.57   -151333.49 
   63900    105.14439     6.069341      2204118          147  0.007193656   -151584.71   -151335.86 
   64000    97.561816    37.383491      2204118          147  0.007193656   -151574.43   -151343.53 
   64100    94.175147   -16.030283      2204118          147  0.007193656   -151572.59    -151349.7 
   64200    96.735045    65.270057      2204118          147  0.007193656   -151575.33   -151346.38 
   64300    103.33243   -21.881107      2204118          147  0.007193656   -151573.22   -151328.65 
   64400    103.43193    5.7597347      2204118          147  0.007193656   -151572.76   -151327.96 
   64500    97.901412     5.284594      2204118          147  0.007193656    -151568.6   -151336.89 
   64600    98.170694    68.540603      2204118          147  0.007193656   -151578.34   -151345.99 
   64700    97.162468   -137.19988      2204118          147  0.007193656   -151589.78   -151359.82 
   64800    98.598816   -26.545055      2204118          147  0.007193656   -151596.41   -151363.05 
   64900    99.786428     22.15773      2204118          147  0.007193656   -151577.54   -151341.37 
   65000    98.826302    8.1050649      2204118          147  0.007193656   -151566.53   -151332.63 
   65100    94.792613    46.461759      2204118          147  0.007193656   -151556.13   -151331.78 
   65200    105.75902   -22.008575      2204118          147  0.007193656   -151581.01   -151330.71 
   65300    100.91094    -44.10936      2204118          147  0.007193656   -151577.05   -151338.22 
   65400     96.16685   -67.669514      2204118          147  0.007193656    -151575.2   -151347.59 
   65500    99.129256    15.072432      2204118          147  0.007193656   -151580.64   -151346.03 
   65600    102.83011   -90.112319      2204118          147  0.007193656   -151571.29   -151327.92 
   65700     105.5713   -33.457416      2204118          147  0.007193656   -151571.33   -151321.46 
   65800    97.135923   -45.546835      2204118          147  0.007193656   -151558.81   -151328.91 
   65900    100.95464    -44.28256      2204118          147  0.007193656   -151577.33   -151338.39 
   66000    97.935408    4.7648863      2204118          147  0.007193656   -151573.74   -151341.95 
   66100    102.39035    51.047201      2204118          147  0.007193656   -151582.77   -151340.44 
   66200    103.39259    20.607807      2204118          147  0.007193656   -151582.07   -151337.36 
   66300    96.974612    74.111397      2204118          147  0.007193656   -151564.16   -151334.65 
   66400    103.96422    20.039039      2204118          147  0.007193656   -151566.23   -151320.18 
   66500    103.18325    55.724208      2204118          147  0.007193656   -151556.93   -151312.72 
   66600    100.60564   -44.145312      2204118          147  0.007193656   -151564.78   -151326.67 
   66700    98.887251    41.669018      2204118          147  0.007193656   -151571.78   -151337.73 
   66800    96.844394   -103.20393      2204118          147  0.007193656   -151569.26   -151340.05 
   66900     100.5198    22.808972      2204118          147  0.007193656   -151575.01   -151337.11 
   67000    101.75034   -2.4796643      2204118          147  0.007193656    -151574.9   -151334.08 
   67100    101.36063   -78.298099      2204118          147  0.007193656   -151564.91   -151325.02 
   67200    100.48042    18.198849      2204118          147  0.007193656   -151558.08   -151320.26 
   67300    99.972901   -6.9318674      2204118          147  0.007193656   -151570.38   -151333.77 
   67400    97.497496   -36.312359      2204118          147  0.007193656   -151575.03   -151344.28 
   67500    96.460446    12.333218      2204118          147  0.007193656   -151572.41   -151344.11 
   67600    102.86018   -87.269036      2204118          147  0.007193656   -151581.28   -151337.83 
   67700    103.10935   -7.4127955      2204118          147  0.007193656   -151576.56   -151332.52 
   67800    102.40935    25.075462      2204118          147  0.007193656   -151567.08    -151324.7 
   67900    109.85618    62.592983      2204118          147  0.007193656   -151564.46   -151304.46 
   68000    101.44449    7.3270342      2204118          147  0.007193656   -151554.03   -151313.93 
   68100    99.518033     51.55828      2204118          147  0.007193656   -151563.54      -151328 
   68200    96.852581   -65.724998      2204118          147  0.007193656   -151566.86   -151337.63 
   68300    95.305746   -48.538601      2204118          147  0.007193656   -151565.37   -151339.81 
   68400    101.89514    22.915194      2204118          147  0.007193656   -151574.77   -151333.61 
   68500    101.91779    -62.66216      2204118          147  0.007193656   -151563.84   -151322.62 
   68600    106.10896    92.066773      2204118          147  0.007193656   -151564.18   -151313.04 
   68700    99.642147   -70.917156      2204118          147  0.007193656   -151562.33    -151326.5 
   68800    99.271219    85.255723      2204118          147  0.007193656   -151574.64   -151339.69 
   68900    97.489945   -80.372227      2204118          147  0.007193656   -151573.17   -151342.44 
   69000    103.78303    71.527369      2204118          147  0.007193656   -151583.15   -151337.52 
   69100    103.53249   -95.446929      2204118          147  0.007193656   -151576.43   -151331.39 
   69200    106.33167    102.36047      2204118          147  0.007193656   -151568.99   -151317.33 
   69300    106.32278   -59.142413      2204118          147  0.007193656   -151567.64      -151316 
   69400    98.716618    5.5884233      2204118          147  0.007193656   -151566.15   -151332.51 
   69500    103.68643   -44.996282      2204118          147  0.007193656   -151581.43   -151336.03 
   69600    100.67652    28.609307      2204118          147  0.007193656   -151577.68    -151339.4 
   69700     102.9525   -45.418456      2204118          147  0.007193656   -151583.08   -151339.42 
   69800    97.580311   -18.616713      2204118          147  0.007193656   -151577.72   -151346.77 
   69900    97.400669    8.1591161      2204118          147  0.007193656   -151580.97   -151350.45 
   70000    97.381864    89.454476      2204118          147  0.007193656   -151571.65   -151341.17 
   70100    104.86496    13.981666      2204118          147  0.007193656   -151575.51   -151327.32 
   70200    93.352923    27.913038      2204118          147  0.007193656   -151550.13   -151329.19 
   70300    97.735634   -16.981643      2204118          147  0.007193656   -151571.46   -151340.15 
   70400    99.879776   -27.276041      2204118          147  0.007193656   -151582.22   -151345.82 
   70500    103.09044    66.201754      2204118          147  0.007193656   -151587.13   -151343.14 
   70600    99.136596   -43.848472      2204118          147  0.007193656   -151575.34   -151340.71 
   70700    102.26403    22.382812      2204118          147  0.007193656   -151579.01   -151336.98 
   70800     100.6158   -33.078394      2204118          147  0.007193656   -151573.68   -151335.55 
   70900     104.5163   -32.438304      2204118          147  0.007193656   -151574.54   -151327.18 
   71000    101.53673   -39.102891      2204118          147  0.007193656   -151562.71    -151322.4 
   71100    97.383331   -13.860288      2204118          147  0.007193656   -151564.55   -151334.07 
   71200     98.87279    11.638136      2204118          147  0.007193656   -151579.63   -151345.62 
   71300    101.44419     18.82904      2204118          147  0.007193656    -151585.1   -151345.01 
   71400    101.54253    45.936308      2204118          147  0.007193656   -151579.73    -151339.4 
   71500    101.32143   -10.614797      2204118          147  0.007193656   -151574.66   -151334.86 
   71600    108.92496   -44.434288      2204118          147  0.007193656   -151570.75   -151312.95 
   71700     109.4027    13.016759      2204118          147  0.007193656   -151571.36   -151312.43 
   71800    102.69456    9.6244428      2204118          147  0.007193656   -151571.18   -151328.12 
   71900    105.76728   -1.6239535      2204118          147  0.007193656   -151587.13   -151336.81 
   72000    94.845627   -45.568155      2204118          147  0.007193656   -151570.01   -151345.54 
   72100    103.60678    17.157933      2204118          147  0.007193656   -151585.56   -151340.34 
   72200    103.26476   -43.715234      2204118          147  0.007193656   -151577.64   -151333.23 
   72300    105.35284    32.299692      2204118          147  0.007193656   -151563.75    -151314.4 
   72400    104.04527   -8.6201577      2204118          147  0.007193656   -151555.61   -151309.36 
   72500    101.02472      28.6949      2204118          147  0.007193656   -151562.15   -151323.05 
   72600     106.3847    58.203402      2204118          147  0.007193656   -151582.52   -151330.73 
   72700    99.738825   -51.017423      2204118          147  0.007193656   -151578.41   -151342.35 
   72800    99.196603    36.865504      2204118          147  0.007193656   -151578.95   -151344.17 
   72900     94.99678    -67.20422      2204118          147  0.007193656    -151564.4   -151339.57 
   73000    102.10556   -2.9666158      2204118          147  0.007193656   -151563.99   -151322.33 
   73100    101.08161    -75.29973      2204118          147  0.007193656   -151559.81   -151320.58 
   73200    102.96876    83.730036      2204118          147  0.007193656   -151573.94   -151330.24 
   73300    98.691252   -208.15929      2204118          147  0.007193656   -151570.15   -151336.58 
   73400    102.34507    109.31404      2204118          147  0.007193656   -151582.35   -151340.12 
   73500    99.010402   -85.286356      2204118          147  0.007193656   -151572.78   -151338.45 
   73600    96.928793    155.91303      2204118          147  0.007193656   -151558.91    -151329.5 
   73700    101.45412   -61.851589      2204118          147  0.007193656   -151552.52    -151312.4 
   73800    105.28765    98.663763      2204118          147  0.007193656   -151567.17   -151317.98 
   73900    105.87248    -149.6803      2204118          147  0.007193656   -151582.53   -151331.95 
   74000    108.06453    92.895883      2204118          147  0.007193656   -151593.79   -151338.03 
   74100    103.31967   -39.777125      2204118          147  0.007193656   -151585.73    -151341.2 
   74200    98.504354     106.6231      2204118          147  0.007193656   -151575.53    -151342.4 
   74300    100.76398   -60.114817      2204118          147  0.007193656   -151573.28    -151334.8 
   74400    100.87068    79.614668      2204118          147  0.007193656   -151563.53    -151324.8 
   74500    98.602694   -10.027132      2204118          147  0.007193656   -151561.02   -151327.65 
   74600    91.973639     89.72597      2204118          147  0.007193656   -151561.33   -151343.65 
   74700    96.752154   -31.995576      2204118          147  0.007193656   -151575.35   -151346.36 
   74800    95.394749    8.6872213      2204118          147  0.007193656    -151567.7   -151341.93 
   74900    95.076537   -71.254319      2204118          147  0.007193656   -151563.17   -151338.15 
   75000    94.922588   -58.130832      2204118          147  0.007193656   -151558.79   -151334.13 
[...]
  381700    97.260511   -12.407403      2204118          147  0.007193656   -151631.91   -151401.72 
  381800    94.714434     61.68368      2204118          147  0.007193656   -151627.19   -151403.02 
  381900    102.61598    24.358919      2204118          147  0.007193656   -151633.62   -151390.75 
  382000    101.69171     19.94304      2204118          147  0.007193656   -151624.64   -151383.96 
  382100    100.83638    20.027163      2204118          147  0.007193656    -151620.3   -151381.64 
  382200    101.35645     15.77063      2204118          147  0.007193656   -151623.83   -151383.95 
  382300    94.825542    0.9108652      2204118          147  0.007193656    -151619.1   -151394.67 
  382400    94.164519   -14.079383      2204118          147  0.007193656   -151629.92   -151407.06 
  382500     92.32176   -28.854063      2204118          147  0.007193656    -151624.3   -151405.79 
  382600     97.73146     87.36689      2204118          147  0.007193656      -151615   -151383.69 
  382700    101.85242   -42.819065      2204118          147  0.007193656   -151620.71   -151379.65 
  382800    103.53125    32.297399      2204118          147  0.007193656   -151629.21   -151384.18 
  382900    100.90218    15.356355      2204118          147  0.007193656   -151632.06   -151393.25 
  383000    96.652134   -33.268598      2204118          147  0.007193656   -151628.43   -151399.67 
  383100    99.767813    43.299917      2204118          147  0.007193656   -151635.06   -151398.94 
  383200    102.54899   -56.986716      2204118          147  0.007193656   -151625.29   -151382.58 
  383300    104.39093     -9.77565      2204118          147  0.007193656   -151622.39   -151375.33 
  383400     103.6793   -29.266518      2204118          147  0.007193656    -151624.6   -151379.22 
  383500    98.924451    97.272282      2204118          147  0.007193656   -151628.46   -151394.33 
  383600    96.675044   -104.71746      2204118          147  0.007193656   -151631.22   -151402.41 
  383700     101.5996    3.5310865      2204118          147  0.007193656   -151635.89   -151395.42 
  383800    98.201199    21.677126      2204118          147  0.007193656   -151621.93   -151389.51 
  383900    100.45073    81.925907      2204118          147  0.007193656   -151619.61   -151381.87 
  384000    107.27948   -43.194665      2204118          147  0.007193656    -151625.1   -151371.19 
  384100    109.28499    65.406497      2204118          147  0.007193656   -151616.32   -151357.66 
  384200    103.96912   -44.659554      2204118          147  0.007193656   -151608.96   -151362.89 
  384300    99.489088    54.344048      2204118          147  0.007193656   -151618.04   -151382.58 
  384400    99.229908     1.315009      2204118          147  0.007193656   -151624.74   -151389.89 
  384500     99.04012    21.170592      2204118          147  0.007193656   -151627.75   -151393.35 
  384600     101.9891    32.181361      2204118          147  0.007193656   -151635.24   -151393.86 
  384700    97.318628   -64.533176      2204118          147  0.007193656   -151614.29   -151383.96 
  384800    100.85732   -28.704176      2204118          147  0.007193656   -151609.35   -151370.65 
  384900    103.09751   -34.611767      2204118          147  0.007193656    -151619.4   -151375.39 
  385000    101.75509     30.41499      2204118          147  0.007193656   -151626.46   -151385.63 
  385100    100.77385   -40.033326      2204118          147  0.007193656   -151627.35   -151388.84 
  385200    102.26375   -11.181501      2204118          147  0.007193656   -151630.91   -151388.88 
  385300    97.699325   -33.909376      2204118          147  0.007193656      -151624   -151392.77 
  385400     97.67477   -97.411472      2204118          147  0.007193656   -151626.84   -151395.67 
  385500    99.683134   -64.819388      2204118          147  0.007193656   -151627.09   -151391.16 
  385600     103.8928    29.837649      2204118          147  0.007193656   -151625.14   -151379.25 
  385700    107.66686    61.253479      2204118          147  0.007193656   -151629.02    -151374.2 
  385800     103.0941   -76.683674      2204118          147  0.007193656   -151627.26   -151383.27 
  385900    97.732986   -85.281853      2204118          147  0.007193656   -151627.58   -151396.27 
  386000    97.319691   -22.774085      2204118          147  0.007193656   -151624.25   -151393.92 
  386100    104.05671   -17.844179      2204118          147  0.007193656   -151634.17   -151387.89 
  386200    94.814588    5.5384738      2204118          147  0.007193656   -151604.76   -151380.36 
  386300    106.77669    67.466612      2204118          147  0.007193656   -151614.39   -151361.68 
  386400     102.3691    12.186106      2204118          147  0.007193656   -151606.66   -151364.38 
  386500    98.045717   -28.933559      2204118          147  0.007193656   -151610.35    -151378.3 
  386600    98.930222   -66.686476      2204118          147  0.007193656    -151619.1   -151384.96 
  386700    99.879966    132.97859      2204118          147  0.007193656   -151626.94   -151390.55 
  386800    97.757187   -101.89853      2204118          147  0.007193656   -151626.96    -151395.6 
  386900    97.763288    141.07453      2204118          147  0.007193656      -151625   -151393.61 
  387000    101.60342   -138.33542      2204118          147  0.007193656   -151622.09   -151381.62 
  387100     103.0451    70.821947      2204118          147  0.007193656   -151615.86   -151371.97 
  387200    100.38065    -101.8784      2204118          147  0.007193656   -151618.04   -151380.46 
  387300    99.527293     81.45551      2204118          147  0.007193656   -151626.46    -151390.9 
  387400    102.42457   -29.015926      2204118          147  0.007193656   -151634.17   -151391.76 
  387500    100.41636     41.92167      2204118          147  0.007193656   -151627.89   -151390.22 
  387600    99.276086   -36.823351      2204118          147  0.007193656   -151621.09   -151386.13 
  387700    99.730929   -7.0186633      2204118          147  0.007193656   -151614.22   -151378.19 
  387800    101.80239   -16.082972      2204118          147  0.007193656   -151605.47   -151364.53 
  387900    103.73803   -16.606504      2204118          147  0.007193656   -151612.44   -151366.91 
  388000    105.57256    63.573354      2204118          147  0.007193656   -151634.16    -151384.3 
  388100    96.281909   -7.7635889      2204118          147  0.007193656   -151619.47   -151391.59 
  388200    94.971004    77.163171      2204118          147  0.007193656    -151617.6   -151392.83 
  388300    98.862912    -76.62072      2204118          147  0.007193656   -151619.73   -151385.74 
  388400    104.68969    17.941591      2204118          147  0.007193656   -151618.87   -151371.09 
  388500    103.34025   -94.582477      2204118          147  0.007193656   -151617.45   -151372.87 
  388600    101.72205    114.11863      2204118          147  0.007193656   -151630.09   -151389.34 
  388700    96.539297   -65.636004      2204118          147  0.007193656   -151624.59    -151396.1 
  388800    100.15873   -1.7509728      2204118          147  0.007193656   -151628.99   -151391.94 
  388900    98.504721    7.1906358      2204118          147  0.007193656   -151615.56   -151382.42 
  389000    101.78891    -55.97346      2204118          147  0.007193656   -151618.38   -151377.47 
  389100    97.240344   -33.601983      2204118          147  0.007193656   -151617.23   -151387.09 
  389200    98.060144   -32.267662      2204118          147  0.007193656   -151635.18    -151403.1 
  389300    98.638386    34.282125      2204118          147  0.007193656   -151633.71   -151400.26 
  389400    98.504071   -50.339429      2204118          147  0.007193656   -151623.42   -151390.29 
  389500    99.299624   -43.536465      2204118          147  0.007193656   -151618.31    -151383.3 
  389600    99.760342   -4.9278892      2204118          147  0.007193656    -151619.3   -151383.19 
  389700    102.43168   -75.719189      2204118          147  0.007193656   -151628.06   -151385.62 
  389800    101.24841   -5.0790749      2204118          147  0.007193656   -151629.15   -151389.52 
  389900    94.387668   -2.4041828      2204118          147  0.007193656   -151626.46   -151403.06 
  390000    94.329339    114.23145      2204118          147  0.007193656   -151630.21   -151406.95 
  390100    99.773226     37.45195      2204118          147  0.007193656   -151628.66   -151392.52 
  390200    102.06845    9.5079444      2204118          147  0.007193656   -151624.56   -151382.99 
  390300    103.77932   -29.586382      2204118          147  0.007193656   -151628.31   -151382.69 
  390400    102.02624   -33.917128      2204118          147  0.007193656   -151629.87   -151388.39 
  390500    97.803568    36.687259      2204118          147  0.007193656   -151630.67   -151399.19 
  390600     98.21978   -16.485626      2204118          147  0.007193656   -151638.57    -151406.1 
  390700    100.24136    19.521882      2204118          147  0.007193656   -151631.71   -151394.47 
  390800    102.31585    21.452591      2204118          147  0.007193656   -151621.56    -151379.4 
  390900    101.08927    12.563957      2204118          147  0.007193656   -151620.74   -151381.48 
  391000    103.76207     39.12477      2204118          147  0.007193656   -151630.45   -151384.87 
  391100    99.728106    76.211965      2204118          147  0.007193656   -151635.05   -151399.02 
  391200    97.832849   -55.780119      2204118          147  0.007193656   -151635.69   -151404.15 
  391300    97.106129    -32.51333      2204118          147  0.007193656   -151624.46   -151394.63 
  391400    99.623437    12.198215      2204118          147  0.007193656   -151623.21   -151387.43 
  391500    102.99788   -1.9793906      2204118          147  0.007193656   -151628.54   -151384.77 
  391600    102.11574   -59.621806      2204118          147  0.007193656   -151624.37   -151382.69 
  391700    98.548268    29.517562      2204118          147  0.007193656   -151623.73   -151390.49 
  391800    92.945475   -40.344616      2204118          147  0.007193656   -151619.35   -151399.37 
  391900    93.878704    36.868748      2204118          147  0.007193656   -151630.31   -151408.12 
  392000    95.109485   -128.19449      2204118          147  0.007193656   -151633.75   -151408.65 
  392100     102.8086    76.942814      2204118          147  0.007193656   -151633.13   -151389.81 
  392200     103.2727   -56.820739      2204118          147  0.007193656   -151628.46   -151384.04 
  392300    100.89066   -46.854156      2204118          147  0.007193656   -151620.35   -151381.56 
  392400    95.161142   -119.26688      2204118          147  0.007193656   -151610.94   -151385.72 
  392500    96.263004   -6.5405701      2204118          147  0.007193656   -151626.94   -151399.11 
  392600    96.270747   -61.120467      2204118          147  0.007193656   -151634.12   -151406.27 
  392700    94.205098    34.186791      2204118          147  0.007193656    -151618.2   -151395.24 
  392800    100.47959   -77.729386      2204118          147  0.007193656   -151619.78   -151381.97 
  392900    101.46366     63.45064      2204118          147  0.007193656   -151622.38   -151382.24 
  393000    102.11633   -62.217741      2204118          147  0.007193656   -151629.33   -151387.65 
  393100    100.08218    31.791769      2204118          147  0.007193656   -151634.79   -151397.92 
  393200    95.573235   -71.051989      2204118          147  0.007193656   -151628.25   -151402.05 
  393300    98.844045   -9.7181308      2204118          147  0.007193656   -151623.48   -151389.54 
  393400    98.268264   -34.083282      2204118          147  0.007193656   -151607.43   -151374.85 
  393500    97.164393   0.75082595      2204118          147  0.007193656   -151605.24   -151375.27 
  393600    99.808832    21.523178      2204118          147  0.007193656   -151622.66   -151386.44 
  393700    102.46118   -25.492913      2204118          147  0.007193656   -151635.71   -151393.21 
  393800    100.76795   -49.301455      2204118          147  0.007193656   -151631.68   -151393.19 
  393900    101.85003   -23.922956      2204118          147  0.007193656   -151632.23   -151391.18 
  394000      99.6216   -25.757319      2204118          147  0.007193656   -151621.59   -151385.81 
  394100    96.792189   -8.4033307      2204118          147  0.007193656   -151613.18    -151384.1 
  394200    97.898629    17.339999      2204118          147  0.007193656   -151616.15   -151384.44 
  394300    102.08824    25.533088      2204118          147  0.007193656   -151629.44   -151387.82 
  394400    100.93021   -6.2659437      2204118          147  0.007193656    -151634.1   -151395.22 
  394500    99.266135    65.748782      2204118          147  0.007193656   -151633.79   -151398.85 
  394600    95.697733   -2.3457498      2204118          147  0.007193656   -151622.44   -151395.94 
  394700    102.08669   -57.112051      2204118          147  0.007193656   -151620.56   -151378.95 
  394800     99.46792    22.868364      2204118          147  0.007193656   -151613.33   -151377.91 
  394900    99.617043    11.375776      2204118          147  0.007193656   -151620.84   -151385.07 
  395000    96.103911    47.673536      2204118          147  0.007193656   -151625.67   -151398.21 
  395100    99.028181   -7.1883465      2204118          147  0.007193656   -151637.23   -151402.86 
  395200    108.12143    11.587031      2204118          147  0.007193656   -151636.98   -151381.08 
  395300    104.95983    11.616908      2204118          147  0.007193656   -151622.94   -151374.52 
  395400    104.13134   -112.33448      2204118          147  0.007193656   -151626.51   -151380.05 
  395500     100.6353    65.117644      2204118          147  0.007193656   -151631.21   -151393.03 
  395600     96.57077    68.195277      2204118          147  0.007193656   -151627.03   -151398.47 
  395700    104.98979    35.408485      2204118          147  0.007193656    -151638.5   -151390.01 
  395800    98.707099    -40.55678      2204118          147  0.007193656   -151611.46   -151377.84 
  395900    106.94342    98.815813      2204118          147  0.007193656   -151621.76   -151368.65 
  396000    102.86078   -65.453354      2204118          147  0.007193656   -151600.29   -151356.85 
  396100    104.05896    14.489586      2204118          147  0.007193656   -151612.21   -151365.92 
  396200    99.392865    11.444542      2204118          147  0.007193656   -151618.34    -151383.1 
  396300    96.759068   -9.4911383      2204118          147  0.007193656    -151621.1    -151392.1 
  396400    99.600138   -33.073191      2204118          147  0.007193656   -151631.45   -151395.72 
  396500    99.739231   -51.189938      2204118          147  0.007193656   -151631.34   -151395.28 
  396600    102.48416   -12.883856      2204118          147  0.007193656   -151622.46    -151379.9 
  396700    102.42413    94.613804      2204118          147  0.007193656   -151615.05   -151372.63 
  396800    95.513314  -0.78211792      2204118          147  0.007193656   -151605.77   -151379.71 
  396900    96.198497   -6.8416526      2204118          147  0.007193656   -151624.38    -151396.7 
  397000    92.634237   -23.557328      2204118          147  0.007193656   -151618.08   -151398.84 
  397100     95.11215   -22.833923      2204118          147  0.007193656   -151616.82   -151391.72 
  397200    101.84833   -23.612646      2204118          147  0.007193656   -151623.45    -151382.4 
  397300      97.5887     71.63707      2204118          147  0.007193656   -151608.54   -151377.57 
  397400     98.56081   -24.407616      2204118          147  0.007193656   -151615.41   -151382.14 
  397500    94.478379    54.577637      2204118          147  0.007193656   -151623.34   -151399.73 
  397600    99.189889   -41.243957      2204118          147  0.007193656    -151635.6   -151400.84 
  397700    101.60552    34.251146      2204118          147  0.007193656   -151631.44   -151390.97 
  397800    99.480727   -33.143186      2204118          147  0.007193656   -151614.24   -151378.79 
  397900    103.11937      17.6411      2204118          147  0.007193656   -151622.66    -151378.6 
  398000    99.885941   -51.299685      2204118          147  0.007193656   -151620.38   -151383.97 
  398100     99.10744    111.33129      2204118          147  0.007193656   -151623.04   -151388.48 
  398200    99.887876   -50.443277      2204118          147  0.007193656   -151629.33   -151392.92 
  398300    97.208996    111.34734      2204118          147  0.007193656   -151638.34   -151408.27 
  398400    93.014077    -149.2989      2204118          147  0.007193656   -151633.82   -151413.67 
  398500    97.328559    89.909876      2204118          147  0.007193656   -151626.07   -151395.72 
  398600    98.145788   -119.31446      2204118          147  0.007193656   -151620.28      -151388 
  398700    98.072435     129.9877      2204118          147  0.007193656    -151616.4   -151384.29 
  398800     97.42361   -91.350224      2204118          147  0.007193656   -151617.81   -151387.23 
  398900    102.19217    121.79306      2204118          147  0.007193656   -151632.14   -151390.28 
  399000    101.66845   -169.48669      2204118          147  0.007193656   -151637.84   -151397.21 
  399100    94.500302    120.02297      2204118          147  0.007193656   -151627.87   -151404.21 
  399200    100.78025   -133.29133      2204118          147  0.007193656   -151638.48   -151399.96 
  399300     98.17547    94.266542      2204118          147  0.007193656   -151615.58   -151383.22 
  399400    99.262199   -144.81097      2204118          147  0.007193656   -151613.82   -151378.89 
  399500    94.214091    172.16672      2204118          147  0.007193656    -151607.9   -151384.91 
  399600    97.204446   -101.91802      2204118          147  0.007193656   -151625.39   -151395.33 
  399700    94.543458    100.48285      2204118          147  0.007193656   -151634.67   -151410.91 
  399800    96.624536   -168.59221      2204118          147  0.007193656   -151636.14   -151407.45 
  399900      97.0248    63.019934      2204118          147  0.007193656   -151628.76   -151399.13 
  400000    93.399234   -61.253557      2204118          147  0.007193656   -151610.12   -151389.07 
  400057    101.64074   -81.482515      2204118          147  0.007193656    -151624.1   -151383.54 
Loop time of 4490.97 on 16 procs for 400000 steps with 795 atoms

Performance: 1.924 ns/day, 12.475 hours/ns, 89.068 timesteps/s
100.0% CPU use with 16 MPI tasks x no OpenMP threads

MPI task timing breakdown:
Section |  min time  |  avg time  |  max time  |%varavg| %total
---------------------------------------------------------------
Pair    | 0.1731     | 1122       | 3678.4     |4083.2 | 24.98
Neigh   | 0.0053614  | 0.5666     | 1.1664     |  74.5 |  0.01
Comm    | 0.13927    | 638.35     | 2519       |3666.9 | 14.21
Output  | 0.3278     | 0.34712    | 0.4041     |   2.7 |  0.01
Modify  | 794.58     | 2729       | 4489.8     |3386.5 | 60.77
Other   |            | 0.6388     |            |       |  0.01

Nlocal:        49.6875 ave         209 max           0 min
Histogram: 12 0 0 0 0 0 0 0 0 4
Nghost:        162.312 ave         431 max           0 min
Histogram: 8 0 0 0 0 4 0 0 0 4
Neighs:        3057.06 ave       12864 max           0 min
Histogram: 12 0 0 0 0 0 0 0 0 4

Total # of neighbors = 48913
Ave neighs/atom = 61.525786
Neighbor list builds = 2301
Dangerous builds = 0

write_data graphene_single_layer_ReaxFF_795_C_temp_100K.data
System init for write_data ...
Total wall time: 1:14:54
