
# System definition
read_data graphene_single_layer_x-45_y-45_795_C.data
Reading data file ...
  orthogonal box = (-51.000000 -51.000000 -51.000000) to (96.000000 96.000000 51.000000)
  2 by 4 by 2 MPI processor grid
  reading atoms ...
  795 atoms
  read_data CPU = 0.044 seconds

pair_style reax/c NULL
pair_coeff * * ffield.reax.cho C
Reading potential file ffield.reax.cho with DATE: 2011-02-18
fix qeq_reax all qeq/reax 1 0.0 10.0 1.0e-6 reax/c


# Minimization
timestep 0.25
min_style cg
thermo 100
thermo_style custom step temp press vol lx density pe etotal
dump 2 all custom 1000 graphene_single_layer_ReaxFF_795_C_temp_300K.lammpstrj id type x y z
minimize 1.0e-6 1.0e-6 100 1000

CITE-CITE-CITE-CITE-CITE-CITE-CITE-CITE-CITE-CITE-CITE-CITE-CITE

Your simulation uses code contributions which should be cited:

- pair reaxff command:

@Article{Aktulga12,
 author = {H. M. Aktulga, J. C. Fogarty, S. A. Pandit, A. Y. Grama},
 title = {Parallel reactive molecular dynamics: Numerical methods and algorithmic techniques},
 journal = {Parallel Computing},
 year =    2012,
 volume =  38,
 pages =   {245--259}
}

- fix qeq/reaxff command:

@Article{Aktulga12,
 author = {H. M. Aktulga, J. C. Fogarty, S. A. Pandit, A. Y. Grama},
 title = {Parallel reactive molecular dynamics: Numerical methods and algorithmic techniques},
 journal = {Parallel Computing},
 year =    2012,
 volume =  38,
 pages =   {245--259}
}

CITE-CITE-CITE-CITE-CITE-CITE-CITE-CITE-CITE-CITE-CITE-CITE-CITE

WARNING: Using 'neigh_modify every 1 delay 0 check yes' setting during minimization (../min.cpp:188)
Neighbor list info ...
  update every 1 steps, delay 0 steps, check yes
  max neighbors/atom: 10000, page size: 100000
  master list distance cutoff = 10.4
  ghost atom cutoff = 10.4
  binsize = 5.2, bins = 29 29 20
  2 neighbor lists, perpetual/occasional/extra = 2 0 0
  (1) pair reax/c, perpetual
      attributes: half, newton off, ghost
      pair build: half/bin/newtoff/ghost
      stencil: full/ghost/bin/3d
      bin: standard
  (2) fix qeq/reax, perpetual, copy from (1)
      attributes: half, newton off, ghost
      pair build: copy
      stencil: none
      bin: none
Per MPI rank memory allocation (min/avg/max) = 7.965 | 10.90 | 14.56 Mbytes
Step Temp Press Volume Lx Density PotEng TotEng 
       0            0    4589.6155      2204118          147  0.007193656   -142445.78   -142445.78 
      57            0    1294.9092      2204118          147  0.007193656   -150031.46   -150031.46 
Loop time of 3.35319 on 16 procs for 57 steps with 795 atoms

99.9% CPU use with 16 MPI tasks x no OpenMP threads

Minimization stats:
  Stopping criterion = energy tolerance
  Energy initial, next-to-last, final = 
     -142445.777810412  -150031.434465826  -150031.460524184
  Force two-norm initial, final = 2416.1570 1787.6736
  Force max component initial, final = 272.51119 337.29483
  Final line search alpha, max atom move = 0.00017977701 0.060637855
  Iterations, force evaluations = 57 237

MPI task timing breakdown:
Section |  min time  |  avg time  |  max time  |%varavg| %total
---------------------------------------------------------------
Pair    | 0.00012697 | 0.69903    | 2.3014     | 102.1 | 20.85
Neigh   | 2.1656e-05 | 0.001522   | 0.0031375  |   3.8 |  0.05
Comm    | 0.00024494 | 0.40049    | 1.5791     |  91.5 | 11.94
Output  | 0          | 0          | 0          |   0.0 |  0.00
Modify  | 1.0342     | 1.0367     | 1.0391     |   0.2 | 30.92
Other   |            | 1.215      |            |       | 36.25

Nlocal:        49.6875 ave         209 max           0 min
Histogram: 12 0 0 0 0 0 0 0 0 4
Nghost:        162.812 ave         432 max           0 min
Histogram: 8 0 0 0 0 4 0 0 0 4
Neighs:        3113.44 ave       13116 max           0 min
Histogram: 12 0 0 0 0 0 0 0 0 4

Total # of neighbors = 49815
Ave neighs/atom = 62.660377
Neighbor list builds = 6
Dangerous builds = 0

fix 1 all nvt temp 300.0 300.0 $(100.0*dt)
fix 1 all nvt temp 300.0 300.0 25
run 400000
Per MPI rank memory allocation (min/avg/max) = 6.841 | 9.777 | 13.44 Mbytes
Step Temp Press Volume Lx Density PotEng TotEng 
      57            0    1294.9092      2204118          147  0.007193656   -150031.46   -150031.46 
     100    120.96572     1525.022      2204118          147  0.007193656   -150304.19   -150017.89 
     200    250.49812   -711.54448      2204118          147  0.007193656   -150513.57    -149920.7 
     300    296.07646   -745.72469      2204118          147  0.007193656   -150508.34   -149807.59 
     400    354.33298   -808.65516      2204118          147  0.007193656   -150542.36   -149703.74 
     500    350.48218    962.16342      2204118          147  0.007193656   -150731.54   -149902.03 
     600    337.44525    586.79309      2204118          147  0.007193656   -150799.38   -150000.73 
     700    275.57572   -639.33025      2204118          147  0.007193656   -150812.38   -150160.16 
     800    261.36367   -400.05872      2204118          147  0.007193656   -150785.91   -150167.33 
     900    381.80235    45.085309      2204118          147  0.007193656   -151027.21   -150123.58 
    1000    284.30085    1218.2897      2204118          147  0.007193656   -150914.52   -150241.65 
    1100    286.46846   -387.62403      2204118          147  0.007193656   -151012.83   -150334.83 
    1200    224.46334   -196.68288      2204118          147  0.007193656   -150851.66   -150320.41 
    1300    312.20255   -142.17814      2204118          147  0.007193656   -150936.34   -150197.43 
    1400    322.21091    937.27077      2204118          147  0.007193656   -150923.38   -150160.78 
    1500    314.91308   -485.49623      2204118          147  0.007193656   -150993.08   -150247.75 
    1600    252.81294   -419.06651      2204118          147  0.007193656   -150915.02   -150316.67 
    1700    313.44896   -138.62527      2204118          147  0.007193656    -150997.4   -150255.54 
    1800    267.46478    593.68091      2204118          147  0.007193656   -150817.18   -150184.15 
    1900    316.96378   -386.10112      2204118          147  0.007193656   -150893.49   -150143.31 
    2000    294.14999   -451.71447      2204118          147  0.007193656   -150863.63   -150167.44 
    2100    327.26634   -267.74629      2204118          147  0.007193656   -150970.68   -150196.12 
    2200    300.55435    751.09983      2204118          147  0.007193656   -151002.86   -150291.52 
    2300    261.36279   -284.73846      2204118          147  0.007193656    -150960.2   -150341.62 
    2400    251.85909   -57.139716      2204118          147  0.007193656   -150893.25   -150297.16 
    2500    304.25311    92.640372      2204118          147  0.007193656   -150935.58   -150215.49 
    2600    335.14412    474.21197      2204118          147  0.007193656   -150998.26   -150205.05 
    2700    296.31935   -240.97388      2204118          147  0.007193656   -150985.63   -150284.31 
    2800    274.53298   -357.61806      2204118          147  0.007193656   -150951.44   -150301.68 
    2900    279.83704    270.39274      2204118          147  0.007193656    -150911.8   -150249.49 
    3000    320.21484   -222.86566      2204118          147  0.007193656   -150969.62   -150211.75 
    3100    293.92359   -244.46699      2204118          147  0.007193656    -150932.3   -150236.65 
    3200    328.66187    21.805565      2204118          147  0.007193656   -151058.28   -150280.41 
    3300    302.50404    263.58354      2204118          147  0.007193656   -151062.16    -150346.2 
    3400    284.48707   -201.58855      2204118          147  0.007193656   -151060.57   -150387.25 
    3500    266.42119    16.757513      2204118          147  0.007193656   -150995.12   -150364.56 
    3600    310.22155    416.70676      2204118          147  0.007193656   -151041.71   -150307.49 
    3700    303.12378   -2.6033532      2204118          147  0.007193656   -151001.17   -150283.75 
    3800    308.14776   -213.16999      2204118          147  0.007193656   -151049.04   -150319.73 
    3900    302.63154    100.07435      2204118          147  0.007193656   -151078.72   -150362.47 
    4000    299.89235    101.78267      2204118          147  0.007193656   -151065.31   -150355.54 
    4100    297.74703   -182.72439      2204118          147  0.007193656   -151015.13   -150310.43 
    4200    303.25007   -258.83425      2204118          147  0.007193656   -150999.27   -150281.55 
    4300    302.07936    245.73742      2204118          147  0.007193656   -150998.83   -150283.88 
    4400    307.24289   -113.33663      2204118          147  0.007193656    -151051.4   -150324.23 
    4500    316.14676   -180.93684      2204118          147  0.007193656   -151101.12   -150352.87 
    4600     306.3654    143.63778      2204118          147  0.007193656   -151089.93   -150364.83 
    4700    302.63276    156.19999      2204118          147  0.007193656   -151058.38   -150342.12 
    4800    316.58529    -185.8276      2204118          147  0.007193656   -151045.96   -150296.68 
    4900     310.2247    96.996587      2204118          147  0.007193656   -151040.67   -150306.44 
    5000    286.34029    36.337221      2204118          147  0.007193656   -151034.02   -150356.32 
    5100     293.9143   -194.38969      2204118          147  0.007193656   -151077.67   -150382.04 
    5200    284.45414   -53.804142      2204118          147  0.007193656   -151031.22   -150357.98 
    5300     305.0307    -68.24277      2204118          147  0.007193656   -151045.83    -150323.9 
    5400     316.9254    9.4060408      2204118          147  0.007193656   -151082.14   -150332.06 
    5500     301.2261    73.118601      2204118          147  0.007193656   -151066.57   -150353.64 
    5600    299.08816    65.810969      2204118          147  0.007193656   -151112.36   -150404.49 
    5700    302.13301   -88.855596      2204118          147  0.007193656   -151147.91   -150432.83 
    5800    282.80381   -36.175379      2204118          147  0.007193656   -151075.42   -150406.09 
    5900    302.07455   -1.0365599      2204118          147  0.007193656   -151071.39   -150356.45 
    6000    300.57657    127.95273      2204118          147  0.007193656   -151045.54   -150334.15 
    6100    307.48224    -21.82178      2204118          147  0.007193656   -151088.33    -150360.6 
    6200     287.4184    114.00018      2204118          147  0.007193656   -151085.84   -150405.59 
    6300     300.1839    34.153769      2204118          147  0.007193656   -151111.16   -150400.69 
    6400    291.68756   -28.507883      2204118          147  0.007193656   -151072.65    -150382.3 
    6500    305.58084   -25.871238      2204118          147  0.007193656   -151062.53   -150339.29 
    6600    299.55474   -38.066138      2204118          147  0.007193656    -151031.1   -150322.12 
    6700    322.64964    8.7878992      2204118          147  0.007193656   -151103.35   -150339.71 
    6800    309.07294    6.4427265      2204118          147  0.007193656   -151110.83   -150379.33 
    6900    291.73257   -52.114491      2204118          147  0.007193656   -151100.21   -150409.75 
    7000    287.02312    71.144394      2204118          147  0.007193656   -151087.92   -150408.61 
    7100     303.0913    70.071334      2204118          147  0.007193656   -151089.83   -150372.48 
    7200    319.56229   -12.691111      2204118          147  0.007193656    -151101.8   -150345.47 
    7300    298.57974   -55.240652      2204118          147  0.007193656   -151075.37    -150368.7 
    7400    295.42033   -49.679944      2204118          147  0.007193656   -151081.32   -150382.13 
    7500    288.46945    121.56696      2204118          147  0.007193656   -151077.79   -150395.06 
    7600    296.49632   -23.845963      2204118          147  0.007193656   -151104.89   -150403.15 
    7700    298.57943   -95.613139      2204118          147  0.007193656   -151091.92   -150385.25 
    7800    315.80714    117.43698      2204118          147  0.007193656   -151090.04    -150342.6 
    7900    312.41994   -108.94761      2204118          147  0.007193656   -151089.41   -150349.99 
    8000      303.037   -57.700108      2204118          147  0.007193656   -151117.98   -150400.77 
    8100    302.80662   -45.678961      2204118          147  0.007193656   -151126.43   -150409.76 
    8200    286.77851   -76.175761      2204118          147  0.007193656   -151061.79   -150383.05 
    8300    311.36855    51.966195      2204118          147  0.007193656   -151091.34    -150354.4 
    8400     315.0012    122.06148      2204118          147  0.007193656   -151123.23    -150377.7 
    8500    304.25931    -9.471418      2204118          147  0.007193656   -151135.33   -150415.22 
    8600    302.37127   -35.305245      2204118          147  0.007193656   -151130.11   -150414.47 
    8700    290.77124   -13.511221      2204118          147  0.007193656   -151087.87   -150399.68 
    8800    321.42348    37.060757      2204118          147  0.007193656    -151136.2   -150375.47 
    8900    304.59807   -156.86652      2204118          147  0.007193656   -151057.94   -150337.03 
    9000    314.92803    32.121921      2204118          147  0.007193656   -151078.46    -150333.1 
    9100    300.07893   -21.545351      2204118          147  0.007193656   -151110.59   -150400.37 
    9200     304.1848    78.079084      2204118          147  0.007193656   -151147.19   -150427.26 
    9300    303.06357    11.326411      2204118          147  0.007193656      -151158   -150440.72 
    9400    280.53887     110.0545      2204118          147  0.007193656   -151074.24   -150410.27 
    9500    297.55756   -93.269632      2204118          147  0.007193656    -151082.8   -150378.55 
    9600    301.64947   -133.93462      2204118          147  0.007193656   -151106.87   -150392.94 
    9700    301.46572    75.033691      2204118          147  0.007193656   -151133.53   -150420.03 
    9800    293.77319   -48.194952      2204118          147  0.007193656   -151122.37   -150427.08 
    9900    288.14486     -92.9662      2204118          147  0.007193656   -151094.83   -150412.86 
   10000    285.62778     76.79666      2204118          147  0.007193656   -151073.65   -150397.64 
   10100    301.53339   -82.625004      2204118          147  0.007193656    -151100.4   -150386.74 
   10200     305.8534   -119.63484      2204118          147  0.007193656    -151144.4   -150420.52 
   10300     308.3503    151.71082      2204118          147  0.007193656   -151193.64   -150463.85 
   10400    274.60778   -62.432686      2204118          147  0.007193656   -151120.91   -150470.98 
   10500    282.66116   -134.92679      2204118          147  0.007193656   -151094.92   -150425.93 
   10600    300.29273    87.049048      2204118          147  0.007193656   -151106.21   -150395.48 
   10700    312.18057   -25.914403      2204118          147  0.007193656   -151127.47   -150388.61 
   10800    309.14993   -153.38481      2204118          147  0.007193656   -151145.47   -150413.79 
   10900    288.55258    223.08827      2204118          147  0.007193656   -151135.72   -150452.79 
   11000    288.96829   -36.271447      2204118          147  0.007193656    -151135.4   -150451.48 
   11100    296.70512    -135.1024      2204118          147  0.007193656   -151129.39   -150427.16 
   11200    289.65742    134.20552      2204118          147  0.007193656   -151091.17   -150405.62 
   11300    308.73691   -26.788933      2204118          147  0.007193656   -151119.52   -150388.82 
   11400    317.76471   -23.848747      2204118          147  0.007193656   -151145.79   -150393.72 
   11500    300.87559    97.899285      2204118          147  0.007193656   -151154.32   -150442.22 
   11600    297.52726    107.30645      2204118          147  0.007193656   -151162.82   -150458.64 
   11700    279.08774   -163.44079      2204118          147  0.007193656   -151090.21   -150429.68 
   11800    298.84812    62.341028      2204118          147  0.007193656   -151115.04   -150407.73 
   11900    303.11029    44.410555      2204118          147  0.007193656   -151116.82   -150399.43 
   12000    294.25345   -93.518569      2204118          147  0.007193656   -151108.18   -150411.75 
   12100    298.55969    -158.0371      2204118          147  0.007193656   -151147.55   -150440.93 
   12200     289.4522    92.667703      2204118          147  0.007193656   -151159.46    -150474.4 
   12300    285.89176    3.1007906      2204118          147  0.007193656   -151135.38   -150458.74 
   12400    305.01394   -85.442533      2204118          147  0.007193656   -151126.24   -150404.35 
   12500    312.55798    19.154618      2204118          147  0.007193656    -151130.8   -150391.05 
   12600    304.42273    2.6538722      2204118          147  0.007193656   -151126.95   -150406.45 
   12700    286.34339    31.480856      2204118          147  0.007193656   -151124.57   -150446.86 
   12800    295.56944  -0.82373734      2204118          147  0.007193656   -151146.79   -150447.24 
   12900    299.62355   -17.220301      2204118          147  0.007193656   -151136.22   -150427.08 
   13000    310.14196   -126.23109      2204118          147  0.007193656   -151144.82   -150410.79 
   13100    294.70627   -56.063769      2204118          147  0.007193656   -151111.92   -150414.42 
   13200    309.37552    -121.6902      2204118          147  0.007193656   -151155.38   -150423.16 
   13300    295.42981   -111.88693      2204118          147  0.007193656   -151130.28   -150431.07 
   13400    303.72241   -39.645033      2204118          147  0.007193656   -151126.52   -150407.68 
   13500    304.18824    93.733725      2204118          147  0.007193656   -151086.58   -150366.64 
   13600    309.09799    24.354466      2204118          147  0.007193656   -151087.46    -150355.9 
   13700    293.32506   -104.88887      2204118          147  0.007193656   -151094.63   -150400.39 
   13800    302.13733   -11.399362      2204118          147  0.007193656   -151145.54   -150430.45 
   13900    293.69324    67.224347      2204118          147  0.007193656   -151131.82   -150436.72 
   14000    309.21328    148.30798      2204118          147  0.007193656   -151160.31   -150428.47 
   14100    306.46389   -100.40241      2204118          147  0.007193656   -151119.98   -150394.65 
   14200    306.02639    49.894708      2204118          147  0.007193656   -151096.81   -150372.51 
   14300    298.09725    39.808905      2204118          147  0.007193656   -151108.78   -150403.25 
   14400    289.46095     90.35103      2204118          147  0.007193656   -151127.06   -150441.97 
   14500    288.72197   -136.55031      2204118          147  0.007193656   -151118.85   -150435.51 
   14600    288.37184   -75.420366      2204118          147  0.007193656   -151090.57   -150408.06 
   14700    307.39789    -19.61605      2204118          147  0.007193656    -151117.3   -150389.77 
   14800    295.78807    95.251439      2204118          147  0.007193656   -151109.53   -150409.47 
   14900    288.23793   -57.956943      2204118          147  0.007193656   -151148.77   -150466.58 
   15000    283.94813    24.280727      2204118          147  0.007193656   -151141.62   -150469.59 
   15100    293.08065    96.658845      2204118          147  0.007193656   -151131.39   -150437.74 
   15200    285.83653    52.113989      2204118          147  0.007193656   -151089.45   -150412.94 
   15300    305.21174   -53.809848      2204118          147  0.007193656   -151120.99   -150398.62 
   15400    300.22196    226.74354      2204118          147  0.007193656   -151119.12   -150408.57 
   15500    297.65759   -35.663936      2204118          147  0.007193656   -151133.75   -150429.27 
   15600    285.02937   -53.751762      2204118          147  0.007193656   -151158.67   -150484.07 
   15700    278.36634    20.202937      2204118          147  0.007193656   -151137.38   -150478.55 
   15800    302.97006   -39.528244      2204118          147  0.007193656   -151151.69   -150434.63 
   15900    287.55281    7.5153948      2204118          147  0.007193656   -151089.41   -150408.84 
   16000    314.32728   -21.074448      2204118          147  0.007193656   -151138.57   -150394.63 
   16100    319.43333 -0.054944332      2204118          147  0.007193656   -151164.44   -150408.42 
   16200    302.18561    -80.53672      2204118          147  0.007193656   -151171.91   -150456.71 
   16300    287.23686    47.765794      2204118          147  0.007193656   -151136.77   -150456.95 
   16400     297.2696    17.410751      2204118          147  0.007193656   -151137.01   -150433.44 
   16500    296.71288   -27.506553      2204118          147  0.007193656   -151127.67   -150425.42 
   16600    313.64075    11.337838      2204118          147  0.007193656   -151155.48   -150413.17 
   16700    297.54286   -140.30344      2204118          147  0.007193656   -151128.18   -150423.97 
   16800    303.03368   -44.009874      2204118          147  0.007193656   -151146.64   -150429.43 
   16900    290.52573    125.83683      2204118          147  0.007193656   -151128.43   -150440.82 
   17000    309.41646   -82.199471      2204118          147  0.007193656   -151180.45   -150448.14 
   17100    309.60443   0.99157503      2204118          147  0.007193656   -151209.39   -150476.63 
   17200    288.74866    188.25408      2204118          147  0.007193656   -151201.89   -150518.49 
   17300    281.16592   -181.84754      2204118          147  0.007193656   -151182.75   -150517.29 
   17400    299.27759   -8.4003897      2204118          147  0.007193656   -151189.59   -150481.27 
   17500    306.81269    33.390544      2204118          147  0.007193656   -151197.07   -150470.92 
   17600    310.44827    -59.14136      2204118          147  0.007193656   -151192.07   -150457.31 
   17700    297.91353     -12.6664      2204118          147  0.007193656    -151148.4   -150443.31 
   17800    301.00543    28.936525      2204118          147  0.007193656   -151124.58   -150412.17 
   17900    320.88352     -98.9728      2204118          147  0.007193656   -151147.99   -150388.54 
   18000    298.90555     58.37999      2204118          147  0.007193656   -151147.55   -150440.11 
   18100     295.4259   -28.508585      2204118          147  0.007193656   -151166.85   -150467.65 
   18200    283.33546   -18.762032      2204118          147  0.007193656   -151139.74   -150469.16 
   18300    292.96507    56.434604      2204118          147  0.007193656   -151146.66   -150453.28 
   18400    294.38982   -9.3079361      2204118          147  0.007193656   -151117.22   -150420.47 
   18500    323.04949    14.712191      2204118          147  0.007193656   -151150.97   -150386.38 
   18600    305.75597    73.013072      2204118          147  0.007193656   -151110.65   -150386.99 
   18700    286.68641    36.467297      2204118          147  0.007193656   -151128.97   -150450.46 
   18800    301.76385   -99.777953      2204118          147  0.007193656   -151181.79   -150467.58 
   18900    303.76729    3.9210869      2204118          147  0.007193656    -151192.4   -150473.45 
   19000    298.64645    93.762962      2204118          147  0.007193656   -151162.49   -150455.66 
   19100    294.21484  -0.72930667      2204118          147  0.007193656   -151107.21   -150410.88 
   19200    286.20057   -46.709267      2204118          147  0.007193656   -151080.92   -150403.55 
   19300    327.59738    6.3841952      2204118          147  0.007193656   -151192.29   -150416.95 
   19400    307.27833   -57.382249      2204118          147  0.007193656   -151173.89   -150446.63 
   19500    307.40123   -149.04983      2204118          147  0.007193656   -151175.24    -150447.7 
   19600    301.96699    47.397871      2204118          147  0.007193656   -151175.44   -150460.76 
   19700       297.25    73.453249      2204118          147  0.007193656      -151192   -150488.48 
   19800     285.2304   -110.86593      2204118          147  0.007193656   -151192.98    -150517.9 
   19900    280.42908    115.17116      2204118          147  0.007193656   -151182.18   -150518.47 
   20000    302.87228    90.450575      2204118          147  0.007193656   -151178.99   -150462.16 
   20100    284.51735   -149.38513      2204118          147  0.007193656   -151112.61   -150439.23 
   20200    315.09587   -63.121189      2204118          147  0.007193656   -151172.62   -150426.86 
   20300    302.54795    137.78815      2204118          147  0.007193656   -151149.46    -150433.4 
   20400    304.38355    18.161776      2204118          147  0.007193656   -151183.08   -150462.67 
   20500    279.54535   -4.5598805      2204118          147  0.007193656   -151157.72    -150496.1 
   20600    284.68878    66.484378      2204118          147  0.007193656   -151173.98   -150500.19 
   20700    295.51625    16.460794      2204118          147  0.007193656    -151158.9   -150459.48 
   20800    304.07364   -46.979788      2204118          147  0.007193656   -151145.16   -150425.49 
   20900    309.76321    71.225291      2204118          147  0.007193656   -151171.16   -150438.02 
   21000    298.94818    -81.11336      2204118          147  0.007193656   -151176.73   -150469.19 
   21100    300.12822   -19.107937      2204118          147  0.007193656   -151196.16   -150485.83 
   21200    294.83213    115.16822      2204118          147  0.007193656   -151188.67   -150490.88 
   21300    315.12105   -107.66875      2204118          147  0.007193656   -151235.11   -150489.29 
   21400    291.42136    31.730998      2204118          147  0.007193656   -151168.49   -150478.77 
   21500    308.53233    74.299847      2204118          147  0.007193656   -151194.78   -150464.56 
   21600    308.33676   -39.298252      2204118          147  0.007193656   -151187.78   -150458.02 
   21700    302.10678    -73.07731      2204118          147  0.007193656   -151168.24   -150453.23 
   21800    299.73591    44.975188      2204118          147  0.007193656   -151181.07   -150471.66 
   21900    290.44993     -66.2381      2204118          147  0.007193656   -151193.61   -150506.19 
   22000    294.77118    14.166985      2204118          147  0.007193656   -151228.68   -150531.03 
   22100    300.88601    121.26536      2204118          147  0.007193656   -151218.81   -150506.68 
   22200    296.85915   -51.135678      2204118          147  0.007193656   -151149.45   -150446.86 
   22300    297.93466   -44.850179      2204118          147  0.007193656   -151147.79   -150442.65 
   22400    306.92465    56.274318      2204118          147  0.007193656   -151199.82    -150473.4 
   22500    284.47385     19.02505      2204118          147  0.007193656   -151174.99    -150501.7 
   22600    293.22766   -108.35931      2204118          147  0.007193656   -151190.64   -150496.64 
   22700    294.01163    195.08881      2204118          147  0.007193656   -151169.18   -150473.32 
   22800      310.892   -51.237905      2204118          147  0.007193656   -151146.32   -150410.51 
   22900    316.83083   -46.394887      2204118          147  0.007193656   -151171.13   -150421.26 
   23000    299.80463    127.27716      2204118          147  0.007193656   -151171.03   -150461.46 
   23100    303.21264   -26.049794      2204118          147  0.007193656    -151199.7   -150482.07 
   23200    285.65295    24.791429      2204118          147  0.007193656   -151170.26   -150494.19 
   23300    314.78151   -39.923928      2204118          147  0.007193656   -151224.57   -150479.56 
   23400    314.05807    71.317451      2204118          147  0.007193656   -151185.92   -150442.62 
   23500    326.22192   -27.155726      2204118          147  0.007193656   -151196.66   -150424.57 
   23600    315.43325   -102.03389      2204118          147  0.007193656   -151217.72   -150471.16 
   23700    309.68781    3.2064132      2204118          147  0.007193656   -151233.01   -150500.05 
   23800    292.35671   -120.87432      2204118          147  0.007193656   -151194.81   -150502.87 
   23900    295.79133   -35.017775      2204118          147  0.007193656   -151199.46   -150499.39 
   24000    306.36948    34.808545      2204118          147  0.007193656   -151198.41    -150473.3 
   24100    296.84848   -87.601124      2204118          147  0.007193656   -151141.69   -150439.12 
   24200    296.23423    67.142057      2204118          147  0.007193656   -151141.54   -150440.42 
   24300    279.86119    78.631138      2204118          147  0.007193656   -151164.18   -150501.81 
   24400    294.14146    -68.58552      2204118          147  0.007193656   -151207.73   -150511.56 
   24500    292.78702    22.001786      2204118          147  0.007193656   -151201.45   -150508.49 
   24600    300.12344    152.40292      2204118          147  0.007193656    -151208.6   -150498.28 
   24700    289.30884   -186.88903      2204118          147  0.007193656   -151167.35   -150482.62 
   24800    311.23786    8.7084413      2204118          147  0.007193656   -151186.54   -150449.92 
   24900    317.31438    114.75571      2204118          147  0.007193656   -151204.57   -150453.57 
   25000    297.61624     -55.3465      2204118          147  0.007193656   -151215.55   -150511.17 
   25100     291.4908   -68.887208      2204118          147  0.007193656   -151214.56   -150524.67 
   25200    291.87201    35.085914      2204118          147  0.007193656   -151209.52   -150518.73 
   25300    292.81226   -36.230337      2204118          147  0.007193656   -151185.98   -150492.96 
   25400    304.61209    61.531849      2204118          147  0.007193656   -151176.86   -150455.92 
   25500    319.00384    68.797371      2204118          147  0.007193656   -151203.45   -150448.44 
   25600     293.6289   -72.277933      2204118          147  0.007193656   -151202.99   -150508.04 
   25700    299.08209   -187.49261      2204118          147  0.007193656   -151239.54   -150531.68 
   25800    293.20445    132.78674      2204118          147  0.007193656   -151225.73   -150531.78 
   25900    305.49142   -68.849052      2204118          147  0.007193656   -151229.45   -150506.42 
   26000    325.52679   -153.01956      2204118          147  0.007193656   -151224.61   -150454.16 
   26100    300.76381    78.598195      2204118          147  0.007193656   -151167.13    -150455.3 
   26200    299.55219    64.152504      2204118          147  0.007193656   -151191.76   -150482.79 
   26300    285.13927   -98.381161      2204118          147  0.007193656   -151178.92   -150504.06 
   26400    311.69174    93.019563      2204118          147  0.007193656   -151248.75   -150511.05 
   26500    315.26827    7.7857892      2204118          147  0.007193656   -151263.41   -150517.24 
   26600    292.50655   -123.16613      2204118          147  0.007193656   -151227.55   -150535.26 
   26700    283.35186    82.332827      2204118          147  0.007193656   -151225.72   -150555.09 
   26800     283.2488    81.447335      2204118          147  0.007193656   -151197.85   -150527.46 
   26900    307.44815   -170.75963      2204118          147  0.007193656   -151213.77   -150486.12 
   27000    312.66448   -69.279255      2204118          147  0.007193656   -151216.53   -150476.53 
   27100     304.9806    40.935234      2204118          147  0.007193656    -151211.6   -150489.78 
   27200    291.41373   -225.07114      2204118          147  0.007193656   -151228.04   -150538.34 
   27300    289.06328   -39.720859      2204118          147  0.007193656   -151231.84    -150547.7 
   27400    301.11967    77.825948      2204118          147  0.007193656   -151249.13   -150536.45 
   27500    295.42811   -87.394734      2204118          147  0.007193656   -151215.87   -150516.66 
   27600    299.01146   -101.94003      2204118          147  0.007193656   -151201.79    -150494.1 
   27700    315.38944     150.0909      2204118          147  0.007193656   -151230.35   -150483.89 
   27800    287.24338   -132.00927      2204118          147  0.007193656   -151207.12   -150527.28 
   27900    296.68702   -95.792798      2204118          147  0.007193656   -151255.87   -150553.68 
   28000    301.58278    210.36837      2204118          147  0.007193656   -151243.58    -150529.8 
   28100    307.22639    47.375752      2204118          147  0.007193656   -151222.32   -150495.19 
   28200    309.07914   -133.39224      2204118          147  0.007193656   -151220.06   -150488.54 
   28300    290.71236    115.35072      2204118          147  0.007193656   -151179.18   -150491.13 
   28400    301.96434    22.817428      2204118          147  0.007193656   -151217.96   -150503.28 
   28500    283.55074   -94.740389      2204118          147  0.007193656   -151182.18   -150511.08 
   28600    299.23207   -93.666765      2204118          147  0.007193656   -151207.54   -150499.33 
   28700    299.95829    89.574835      2204118          147  0.007193656   -151212.11   -150502.18 
   28800    299.63317    33.375861      2204118          147  0.007193656   -151226.58   -150517.42 
   28900    297.57238    -48.80013      2204118          147  0.007193656   -151225.76   -150521.48 
   29000    303.15698      167.429      2204118          147  0.007193656   -151224.63   -150507.13 
   29100    295.50417   -97.468345      2204118          147  0.007193656   -151198.33   -150498.94 
   29200    318.79732   -70.159185      2204118          147  0.007193656   -151219.37   -150464.85 
   29300    314.84891    14.876294      2204118          147  0.007193656   -151186.58   -150441.41 
   29400    311.72621   -47.265601      2204118          147  0.007193656   -151210.44   -150472.66 
   29500    291.34366   -72.802249      2204118          147  0.007193656   -151209.99   -150520.45 
   29600    302.36332    72.864494      2204118          147  0.007193656   -151241.37   -150525.74 
   29700    311.02037   -114.23312      2204118          147  0.007193656   -151237.64   -150501.53 
   29800    311.62866    81.297974      2204118          147  0.007193656   -151205.75   -150468.19 
   29900    312.74908    31.202738      2204118          147  0.007193656   -151199.39   -150459.19 
   30000    293.80459    19.935846      2204118          147  0.007193656   -151222.98   -150527.62 
   30100    303.10038    127.52295      2204118          147  0.007193656   -151246.82   -150529.45 
   30200    305.30307    91.058036      2204118          147  0.007193656   -151234.93   -150512.35 
   30300    317.77642   -59.608163      2204118          147  0.007193656    -151241.8    -150489.7 
   30400    307.37802    64.864224      2204118          147  0.007193656   -151191.03   -150463.54 
   30500    300.77537    26.619058      2204118          147  0.007193656   -151213.24   -150501.38 
   30600    294.04498   -6.5256768      2204118          147  0.007193656   -151230.96   -150535.02 
   30700    307.63827   -30.916836      2204118          147  0.007193656   -151264.42   -150536.31 
   30800    330.64151   -130.53042      2204118          147  0.007193656   -151283.48   -150500.93 
   30900    311.21118   -80.467541      2204118          147  0.007193656    -151213.5   -150476.94 
   31000    305.55244    21.740609      2204118          147  0.007193656   -151207.56   -150484.39 
   31100    313.33717    83.645348      2204118          147  0.007193656   -151240.59   -150498.99 
   31200    296.35081    54.287067      2204118          147  0.007193656   -151218.68   -150517.28 
   31300    313.70856   -43.212611      2204118          147  0.007193656   -151264.37   -150521.89 
   31400    301.31012   -24.297723      2204118          147  0.007193656   -151228.36   -150515.23 
   31500    300.45859   -15.816633      2204118          147  0.007193656   -151168.95   -150457.84 
   31600    326.44469   -11.551807      2204118          147  0.007193656   -151213.11    -150440.5 
   31700    306.10509   -98.166623      2204118          147  0.007193656   -151214.03   -150489.55 
   31800    300.54544    16.851263      2204118          147  0.007193656   -151229.28   -150517.96 
   31900    292.77345    101.40783      2204118          147  0.007193656    -151219.4   -150526.48 
   32000    288.79465    -103.3078      2204118          147  0.007193656   -151196.24   -150512.73 
   32100    309.29695    -120.9519      2204118          147  0.007193656   -151198.37   -150466.33 
   32200    305.18411    48.762848      2204118          147  0.007193656   -151192.26   -150469.96 
   32300      302.775    14.147958      2204118          147  0.007193656   -151217.57   -150500.97 
   32400    294.79923   -20.808175      2204118          147  0.007193656   -151224.37   -150526.65 
   32500    306.17425    106.18504      2204118          147  0.007193656   -151249.93   -150525.29 
   32600     291.5093    3.2289811      2204118          147  0.007193656   -151201.38   -150511.45 
   32700    298.66557   -153.72149      2204118          147  0.007193656   -151196.54   -150489.67 
   32800    314.01503    96.734777      2204118          147  0.007193656    -151212.9    -150469.7 
   32900    305.96433   -69.005813      2204118          147  0.007193656      -151227   -150502.85 
   33000    294.87158   -221.05565      2204118          147  0.007193656   -151236.44   -150538.55 
   33100    285.82228    203.02747      2204118          147  0.007193656   -151206.87    -150530.4 
   33200    303.08172    1.6681079      2204118          147  0.007193656   -151215.94   -150498.61 
   33300    309.25199    -108.0238      2204118          147  0.007193656   -151203.19   -150471.27 
   33400    282.58983    189.28348      2204118          147  0.007193656   -151158.11   -150489.28 
   33500    289.99842     32.83377      2204118          147  0.007193656   -151237.91   -150551.55 
   33600    281.22172     101.7819      2204118          147  0.007193656   -151206.91   -150541.33 
   33700    302.08256    88.931919      2204118          147  0.007193656    -151219.2   -150504.24 
   33800    303.57408   -148.66409      2204118          147  0.007193656   -151204.58   -150486.09 
   33900    305.11475   -73.726717      2204118          147  0.007193656   -151207.28   -150485.14 
   34000    280.64907    94.099085      2204118          147  0.007193656   -151185.97   -150521.74 
   34100    280.80236   -73.345474      2204118          147  0.007193656   -151222.33   -150557.74 
   34200    299.24399    60.540476      2204118          147  0.007193656   -151249.98   -150541.74 
   34300    290.28149    108.27782      2204118          147  0.007193656   -151197.36   -150510.34 
   34400    318.85089    5.3877394      2204118          147  0.007193656   -151253.43   -150498.79 
   34500    302.16579   -48.115834      2204118          147  0.007193656   -151229.39   -150514.24 
   34600    314.94582   -12.200208      2204118          147  0.007193656   -151265.38   -150519.98 
   34700    301.61453    25.781066      2204118          147  0.007193656   -151236.81   -150522.96 
   34800    293.78382    94.745132      2204118          147  0.007193656   -151199.63   -150504.31 
   34900    294.57362   -6.2410505      2204118          147  0.007193656   -151160.28   -150463.09 
   35000    308.11077    39.168281      2204118          147  0.007193656    -151191.8   -150462.57 
   35100    303.06645   -27.688981      2204118          147  0.007193656   -151221.51   -150504.22 
   35200     309.2404   -69.863148      2204118          147  0.007193656   -151262.37   -150530.47 
   35300    294.70559   -123.31572      2204118          147  0.007193656   -151217.89   -150520.39 
   35400    280.64492   -117.39812      2204118          147  0.007193656   -151165.89   -150501.67 
   35500    305.64107   -170.57505      2204118          147  0.007193656   -151207.08    -150483.7 
   35600    311.89369    6.6008624      2204118          147  0.007193656   -151242.31   -150504.13 
   35700    298.31782     30.44318      2204118          147  0.007193656   -151275.07   -150569.02 
   35800    302.83966    13.712387      2204118          147  0.007193656   -151274.94   -150558.19 
   35900    297.94596    95.498866      2204118          147  0.007193656   -151220.65   -150515.48 
   36000    312.75579    13.972423      2204118          147  0.007193656   -151233.34   -150493.12 
   36100    309.64924   -81.331734      2204118          147  0.007193656   -151221.11   -150488.25 
   36200    317.01434    203.58727      2204118          147  0.007193656   -151244.42   -150494.13 
   36300    294.57407   -65.909834      2204118          147  0.007193656   -151247.94   -150550.75 
   36400    295.55443   -24.193287      2204118          147  0.007193656   -151250.59   -150551.08 
   36500    320.34373    66.103001      2204118          147  0.007193656   -151270.16   -150511.98 
   36600    309.12249    79.400445      2204118          147  0.007193656   -151231.76   -150500.14 
   36700     305.4346   -18.249007      2204118          147  0.007193656   -151231.84   -150508.95 
   36800    294.07848    9.5127381      2204118          147  0.007193656   -151243.14   -150547.12 
   36900    299.70665   -61.999847      2204118          147  0.007193656   -151303.72   -150594.39 
   37000    285.01708    18.248649      2204118          147  0.007193656   -151241.15   -150566.59 
   37100    301.84732    118.38824      2204118          147  0.007193656   -151242.65   -150528.25 
   37200    311.67695    148.14486      2204118          147  0.007193656   -151246.84   -150509.18 
   37300    305.98428    -32.67455      2204118          147  0.007193656   -151216.07   -150491.88 
   37400    317.54465    57.505415      2204118          147  0.007193656   -151230.82   -150479.27 
   37500    295.04773     46.23992      2204118          147  0.007193656   -151229.31   -150531.01 
   37600    285.74083   -139.75019      2204118          147  0.007193656    -151231.7   -150555.42 
   37700      295.816   -38.266135      2204118          147  0.007193656   -151234.48   -150534.36 
   37800     314.0379     165.4714      2204118          147  0.007193656    -151246.2   -150502.94 
   37900    305.52758   -124.88356      2204118          147  0.007193656   -151212.42   -150489.31 
   38000    308.51598   -50.507649      2204118          147  0.007193656   -151228.06   -150497.87 
   38100    303.09315    160.52677      2204118          147  0.007193656   -151223.29   -150505.94 
   38200    289.04335   -40.251926      2204118          147  0.007193656   -151204.74   -150520.65 
   38300    281.17032     -43.1533      2204118          147  0.007193656   -151199.83   -150534.36 
   38400    305.24997    152.12873      2204118          147  0.007193656   -151238.21   -150515.76 
   38500    299.37371   -26.553694      2204118          147  0.007193656   -151193.57   -150485.02 
   38600    315.16869    141.08748      2204118          147  0.007193656   -151201.58   -150455.65 
   38700    313.20049    14.394229      2204118          147  0.007193656    -151230.6   -150489.33 
   38800    290.68121   -120.65629      2204118          147  0.007193656   -151216.95   -150528.98 
   38900    298.48728   -165.89841      2204118          147  0.007193656   -151236.56   -150530.11 
   39000    311.32917    61.987358      2204118          147  0.007193656    -151244.1   -150507.26 
   39100    311.14876   -92.013165      2204118          147  0.007193656   -151212.05   -150475.63 
   39200    311.38323     32.08204      2204118          147  0.007193656   -151217.73   -150480.76 
   39300    295.59492     34.54331      2204118          147  0.007193656   -151235.81   -150536.21 
   39400    282.14343    115.49022      2204118          147  0.007193656   -151216.85   -150549.08 
   39500    315.20177   -93.464575      2204118          147  0.007193656    -151265.9   -150519.89 
   39600    304.68265    77.677139      2204118          147  0.007193656   -151212.91    -150491.8 
   39700    307.38195   -244.36634      2204118          147  0.007193656   -151212.72   -150485.22 
   39800    295.85774   -56.289657      2204118          147  0.007193656    -151194.9   -150494.68 
   39900    293.91963    116.92506      2204118          147  0.007193656   -151195.44    -150499.8 
   40000    296.67196   -62.587191      2204118          147  0.007193656    -151200.5   -150498.35 
   40100    304.85048   -27.992739      2204118          147  0.007193656   -151225.98   -150504.47 
   40200    285.92173    110.70483      2204118          147  0.007193656   -151219.67   -150542.96 
   40300    287.73292   -53.480294      2204118          147  0.007193656   -151251.98   -150570.98 
   40400    294.08666    17.133035      2204118          147  0.007193656   -151243.57   -150547.54 
   40500    285.14018    192.94279      2204118          147  0.007193656   -151179.27   -150504.41 
   40600     296.1675   -11.602346      2204118          147  0.007193656   -151198.47   -150497.52 
   40700    309.64109   -52.500833      2204118          147  0.007193656   -151229.65    -150496.8 
   40800    316.18879     75.94884      2204118          147  0.007193656   -151258.82   -150510.48 
   40900    298.83847    13.550027      2204118          147  0.007193656   -151259.64   -150552.36 
   41000    279.63918   -53.024394      2204118          147  0.007193656   -151227.78   -150565.94 
   41100    303.33182    106.83451      2204118          147  0.007193656   -151239.34   -150521.43 
   41200    306.99481   -91.901302      2204118          147  0.007193656   -151225.35   -150498.77 
   41300     302.7229   -201.40657      2204118          147  0.007193656    -151223.7   -150507.22 
   41400     302.3585    33.824072      2204118          147  0.007193656   -151231.17   -150515.56 
   41500    288.47109   -2.5191637      2204118          147  0.007193656   -151210.63   -150527.89 
   41600    282.31656    90.812303      2204118          147  0.007193656   -151231.15   -150562.98 
   41700     280.1628    68.487208      2204118          147  0.007193656   -151237.11   -150574.03 
   41800    292.56724   -88.682559      2204118          147  0.007193656   -151213.01   -150520.57 
   41900    310.40504   -243.85826      2204118          147  0.007193656   -151234.15    -150499.5 
   42000    317.31693     141.5488      2204118          147  0.007193656   -151249.79   -150498.78 
   42100    284.65627   -109.45159      2204118          147  0.007193656   -151190.14   -150516.43 
   42200    277.64524   -110.68608      2204118          147  0.007193656   -151207.97   -150550.85 
   42300      290.167    114.33253      2204118          147  0.007193656   -151252.13   -150565.37 
   42400     295.5885    16.742032      2204118          147  0.007193656   -151225.07   -150525.48 
   42500    309.73371   -154.10627      2204118          147  0.007193656   -151214.46    -150481.4 
   42600    317.53579    167.16692      2204118          147  0.007193656   -151229.51   -150477.98 
   42700     306.2192    86.307614      2204118          147  0.007193656   -151237.82   -150513.07 
   42800    297.53282   -241.68424      2204118          147  0.007193656   -151242.23   -150538.04 
   42900    307.60033    52.058243      2204118          147  0.007193656   -151255.43   -150527.42 
   43000    310.75698    77.424981      2204118          147  0.007193656    -151244.5   -150509.01 
   43100    302.00783   -76.351442      2204118          147  0.007193656   -151216.57   -150501.79 
   43200    294.48186    111.02527      2204118          147  0.007193656   -151203.25   -150506.28 
   43300     305.8072   -3.5353804      2204118          147  0.007193656   -151235.16   -150511.38 
   43400    292.77144   -93.877754      2204118          147  0.007193656   -151200.82    -150507.9 
   43500    296.55355    86.426685      2204118          147  0.007193656   -151214.72   -150512.84 
   43600    306.10692    4.1037249      2204118          147  0.007193656   -151229.06   -150504.58 
   43700    307.24234    36.459576      2204118          147  0.007193656   -151212.33   -150485.16 
   43800    310.60526    81.952227      2204118          147  0.007193656    -151217.7   -150482.57 
   43900    306.29476   -20.199457      2204118          147  0.007193656   -151235.33    -150510.4 
   44000    307.16119    -54.19489      2204118          147  0.007193656   -151275.54   -150548.56 
   44100    305.32628    8.5293682      2204118          147  0.007193656   -151272.54   -150549.91 
   44200    308.58916    63.844341      2204118          147  0.007193656   -151246.23   -150515.87 
   44300    310.20217   -24.733921      2204118          147  0.007193656   -151204.18      -150470 
   44400    287.66905    -166.7512      2204118          147  0.007193656   -151151.29   -150470.44 
   44500    303.23645    103.13304      2204118          147  0.007193656   -151208.52   -150490.83 
   44600    290.32281    87.588908      2204118          147  0.007193656   -151217.33   -150530.21 
   44700    294.69836   -120.82647      2204118          147  0.007193656   -151238.93   -150541.44 
   44800    295.63301    59.424172      2204118          147  0.007193656   -151223.55   -150523.85 
   44900    299.37871    256.64783      2204118          147  0.007193656   -151184.41   -150475.86 
   45000    302.19422    -116.5547      2204118          147  0.007193656   -151186.21   -150470.99 
   45100    291.83823    130.89261      2204118          147  0.007193656   -151172.81    -150482.1 
   45200    312.67765    -156.8224      2204118          147  0.007193656   -151238.27   -150498.23 
   45300    309.81817   -68.757323      2204118          147  0.007193656   -151244.45   -150511.18 
   45400    292.71253    248.39315      2204118          147  0.007193656   -151225.26   -150532.48 
   45500    285.20108   -9.1550438      2204118          147  0.007193656   -151226.91   -150551.91 
   45600    312.73059   -28.738441      2204118          147  0.007193656   -151271.69   -150531.53 
   45700    306.38997   -17.416111      2204118          147  0.007193656   -151207.03   -150481.88 
   45800     310.5028    52.138535      2204118          147  0.007193656   -151210.69    -150475.8 
   45900    308.26967   -115.52483      2204118          147  0.007193656   -151230.91   -150501.31 
   46000    288.35657   -54.749152      2204118          147  0.007193656   -151228.06   -150545.59 
   46100       284.47   -22.312059      2204118          147  0.007193656   -151243.92   -150570.65 
   46200    293.08532    27.385179      2204118          147  0.007193656   -151251.64   -150557.98 
   46300    309.14523   -68.895801      2204118          147  0.007193656   -151254.52   -150522.85 
   46400    306.54463    11.158876      2204118          147  0.007193656    -151218.4   -150492.88 
   46500    296.69501    33.396217      2204118          147  0.007193656   -151187.52   -150485.31 
   46600    295.71534   -15.991963      2204118          147  0.007193656   -151188.02   -150488.13 
   46700     307.1282   -42.639744      2204118          147  0.007193656   -151257.05   -150530.15 
   46800    299.71315   -35.992968      2204118          147  0.007193656   -151266.24   -150556.89 
   46900    293.90639   -53.905003      2204118          147  0.007193656   -151236.36   -150540.75 
   47000    303.29364   -36.367902      2204118          147  0.007193656   -151211.79   -150493.97 
   47100    297.71004    14.017509      2204118          147  0.007193656   -151190.86   -150486.25 
   47200    305.17198    59.076544      2204118          147  0.007193656   -151223.15   -150500.88 
   47300    295.38966   -115.21733      2204118          147  0.007193656   -151229.68   -150530.57 
   47400     285.4903   -89.977791      2204118          147  0.007193656   -151220.99    -150545.3 
   47500    293.81409    246.91271      2204118          147  0.007193656   -151203.64   -150508.26 
   47600    307.79969   -88.544162      2204118          147  0.007193656   -151188.96   -150460.48 
   47700    291.53354    -85.20456      2204118          147  0.007193656   -151166.71   -150476.72 
   47800    308.21262    180.21779      2204118          147  0.007193656   -151240.84   -150511.37 
   47900    312.97294   -8.8870883      2204118          147  0.007193656   -151276.96   -150536.23 
   48000    293.41402   -183.96328      2204118          147  0.007193656   -151217.53   -150523.09 
   48100    292.37303    87.192379      2204118          147  0.007193656    -151160.7   -150468.72 
   48200    294.67827   -90.251844      2204118          147  0.007193656   -151167.92   -150470.48 
   48300    299.42819   -210.00097      2204118          147  0.007193656    -151202.5   -150493.82 
   48400    316.32677    40.012779      2204118          147  0.007193656   -151267.67      -150519 
   48500    284.95693    65.487429      2204118          147  0.007193656   -151220.97   -150546.54 
   48600     298.4926   -20.764786      2204118          147  0.007193656   -151241.83   -150535.37 
   48700    312.61648    50.226409      2204118          147  0.007193656   -151202.44   -150462.55 
   48800     308.8249    41.913825      2204118          147  0.007193656   -151198.68   -150467.77 
   48900    297.40007   -32.476355      2204118          147  0.007193656   -151209.86   -150505.99 
   49000    291.26356    43.209007      2204118          147  0.007193656   -151221.81   -150532.46 
   49100    296.84278   -104.31424      2204118          147  0.007193656    -151241.4   -150538.84 
   49200    303.83016   -46.966301      2204118          147  0.007193656      -151233    -150513.9 
   49300    305.18247    209.62389      2204118          147  0.007193656   -151190.43   -150468.13 
   49400    307.45184   -36.141787      2204118          147  0.007193656   -151199.75   -150472.08 
   49500    311.58515   -22.361936      2204118          147  0.007193656   -151245.02   -150507.57 
   49600    300.58749    38.914633      2204118          147  0.007193656    -151234.7   -150523.28 
   49700    299.39591   -106.16498      2204118          147  0.007193656    -151230.9    -150522.3 
   49800    284.55855    31.364273      2204118          147  0.007193656   -151202.74   -150529.25 
   49900    275.84942    123.92901      2204118          147  0.007193656   -151201.04   -150548.17 
   50000    283.22131   -36.306456      2204118          147  0.007193656   -151233.41   -150563.09 
   50100    298.61255    21.924627      2204118          147  0.007193656    -151248.4   -150541.66 
   50200    306.68306    21.106419      2204118          147  0.007193656   -151224.77   -150498.93 
   50300    310.48946   -105.20591      2204118          147  0.007193656   -151228.78   -150493.93 
   50400    301.80373    3.8432226      2204118          147  0.007193656   -151228.77   -150514.47 
   50500    287.42559    109.20614      2204118          147  0.007193656   -151240.49   -150560.22 
   50600    280.57376   -197.19353      2204118          147  0.007193656   -151253.05   -150588.99 
   50700    298.85583    53.520354      2204118          147  0.007193656   -151272.39   -150565.06 
   50800    305.06727    -13.43533      2204118          147  0.007193656   -151261.31   -150539.29 
   50900    310.04797    22.089609      2204118          147  0.007193656   -151252.41    -150518.6 
   51000    310.95569    -61.96449      2204118          147  0.007193656   -151231.85   -150495.89 
   51100    301.71813    53.119893      2204118          147  0.007193656    -151203.3   -150489.21 
   51200     302.8371   -57.252386      2204118          147  0.007193656   -151210.33   -150493.59 
   51300     301.9471   -12.166827      2204118          147  0.007193656   -151244.36   -150529.72 
   51400    289.85043     55.93519      2204118          147  0.007193656   -151241.98   -150555.97 
   51500    291.76332    12.556931      2204118          147  0.007193656   -151248.45   -150557.91 
   51600     307.0193   -69.329778      2204118          147  0.007193656   -151230.47   -150503.82 
   51700    285.16113   -29.675906      2204118          147  0.007193656   -151168.91      -150494 
   51800    295.26257    95.510587      2204118          147  0.007193656   -151204.89   -150506.07 
   51900    293.48615  -0.74394558      2204118          147  0.007193656   -151235.15   -150540.53 
   52000    298.82997    -85.45088      2204118          147  0.007193656   -151265.64   -150558.38 
   52100    300.81636    91.514242      2204118          147  0.007193656   -151251.37   -150539.41 
   52200    313.72754    105.01267      2204118          147  0.007193656   -151215.03   -150472.51 
   52300     308.6631   -161.32115      2204118          147  0.007193656   -151196.17   -150465.64 
   52400    307.20909   -142.30701      2204118          147  0.007193656    -151226.2   -150499.11 
   52500    295.70051    37.691841      2204118          147  0.007193656   -151236.95    -150537.1 
   52600    276.42583   -68.142664      2204118          147  0.007193656    -151200.1   -150545.86 
   52700    280.83142   -124.01681      2204118          147  0.007193656   -151186.26    -150521.6 
   52800     314.8528      25.7576      2204118          147  0.007193656   -151220.81   -150475.63 
   52900    311.13968   -191.45603      2204118          147  0.007193656   -151216.65   -150480.26 
   53000    292.75022   -100.84661      2204118          147  0.007193656   -151184.04   -150491.17 
   53100      295.567    140.06386      2204118          147  0.007193656   -151212.41   -150512.87 
   53200    297.71708   -57.236654      2204118          147  0.007193656   -151242.14   -150537.51 
   53300    295.95445    52.780553      2204118          147  0.007193656   -151228.58   -150528.13 
   53400    303.17204    22.673965      2204118          147  0.007193656   -151215.57   -150498.04 
   53500     303.8747   -59.558541      2204118          147  0.007193656   -151152.74   -150433.55 
   53600    303.14155    47.259253      2204118          147  0.007193656   -151162.31   -150444.84 
   53700    311.14619    31.776992      2204118          147  0.007193656   -151227.38   -150490.97 
   53800     298.5103    -64.83776      2204118          147  0.007193656   -151225.78   -150519.27 
   53900    294.39231   -67.852121      2204118          147  0.007193656   -151229.88   -150533.12 
   54000    304.55189     99.30942      2204118          147  0.007193656   -151251.47   -150530.67 
   54100    308.61482   -67.457352      2204118          147  0.007193656   -151220.03   -150489.61 
   54200    315.27601   -33.882509      2204118          147  0.007193656   -151200.76   -150454.57 
   54300    309.99063    84.508401      2204118          147  0.007193656   -151208.04   -150474.37 
   54400    292.30748   -30.131973      2204118          147  0.007193656   -151200.58   -150508.76 
   54500    285.29378   -59.372911      2204118          147  0.007193656   -151194.72   -150519.49 
   54600    294.25328    46.442537      2204118          147  0.007193656   -151221.25   -150524.83 
   54700     307.2926    -82.60108      2204118          147  0.007193656   -151240.95   -150513.66 
   54800    295.02164    -73.44114      2204118          147  0.007193656   -151193.31   -150495.07 
   54900    296.97406    37.799703      2204118          147  0.007193656   -151172.89   -150470.02 
   55000    304.75736   -18.407365      2204118          147  0.007193656    -151188.2   -150466.91 
   55100    286.56908    53.836824      2204118          147  0.007193656    -151188.1   -150509.86 
   55200    303.49948    17.497142      2204118          147  0.007193656   -151248.87   -150530.56 
   55300    298.64871   -57.949018      2204118          147  0.007193656    -151236.4   -150529.57 
   55400    306.88263    30.171353      2204118          147  0.007193656   -151214.63   -150488.31 
   55500    316.28485    49.713615      2204118          147  0.007193656   -151197.35   -150448.78 
   55600      297.358   -42.226511      2204118          147  0.007193656   -151183.81   -150480.03 
   55700    302.00319    13.725228      2204118          147  0.007193656   -151221.09   -150506.32 
   55800    298.00024    168.62487      2204118          147  0.007193656   -151229.35   -150524.05 
   55900    294.42574   -69.108864      2204118          147  0.007193656   -151227.75   -150530.91 
   56000     309.4939   -30.955693      2204118          147  0.007193656   -151236.22   -150503.72 
   56100    312.66173   -25.079199      2204118          147  0.007193656   -151194.41   -150454.41 
   56200    309.23959    -35.17315      2204118          147  0.007193656   -151198.55   -150466.65 
   56300    307.74915   -63.075648      2204118          147  0.007193656   -151235.83   -150507.46 
   56400     292.5528    94.114002      2204118          147  0.007193656   -151225.31    -150532.9 
   56500    290.70025   -23.927155      2204118          147  0.007193656    -151225.8   -150537.78 
   56600     298.0652   -57.248029      2204118          147  0.007193656   -151230.65    -150525.2 
   56700    288.11336    120.27239      2204118          147  0.007193656   -151167.53   -150485.63 
   56800    293.88474    9.1157402      2204118          147  0.007193656   -151133.69   -150438.13 
   56900    324.19861    81.539574      2204118          147  0.007193656    -151222.2    -150454.9 
   57000    309.90012    102.75686      2204118          147  0.007193656   -151225.22   -150491.76 
   57100     306.2852    54.235859      2204118          147  0.007193656   -151239.95   -150515.04 
   57200    306.16145    -79.37601      2204118          147  0.007193656   -151254.44   -150529.83 
   57300    300.39077    26.023296      2204118          147  0.007193656   -151245.47   -150534.51 
   57400    305.31046   -13.970184      2204118          147  0.007193656   -151243.34   -150520.74 
   57500     307.5348     50.27007      2204118          147  0.007193656   -151209.94   -150482.07 
   57600    302.32773   -67.418556      2204118          147  0.007193656    -151172.7   -150457.17 
   57700    304.79668   -8.2942284      2204118          147  0.007193656   -151202.93   -150481.55 
   57800     280.9079    68.143757      2204118          147  0.007193656   -151187.37   -150522.52 
   57900    309.13377    6.6568309      2204118          147  0.007193656   -151255.07   -150523.42 
   58000    301.66778   -75.636118      2204118          147  0.007193656   -151234.48    -150520.5 
   58100    313.36238   -34.663257      2204118          147  0.007193656    -151228.1   -150486.45 
   58200    309.48113    42.466817      2204118          147  0.007193656   -151185.61   -150453.14 
   58300    308.43003   -137.49656      2204118          147  0.007193656   -151196.26   -150466.28 
   58400    274.84149    28.129348      2204118          147  0.007193656   -151184.76   -150534.28 
   58500     306.7765    122.47901      2204118          147  0.007193656   -151261.35   -150535.29 
   58600    304.73831   -79.418494      2204118          147  0.007193656    -151246.7   -150525.46 
   58700    310.10586  -0.37173824      2204118          147  0.007193656   -151221.01   -150487.06 
   58800    310.96591    67.500279      2204118          147  0.007193656   -151201.33   -150465.35 
   58900    295.53583   -64.567977      2204118          147  0.007193656   -151198.89   -150499.43 
   59000      297.078   -10.826426      2204118          147  0.007193656   -151223.59   -150520.48 
   59100    304.38212    65.796009      2204118          147  0.007193656    -151238.3    -150517.9 
   59200    292.71512  0.093184498      2204118          147  0.007193656   -151205.44   -150512.65 
   59300    300.33559    48.566472      2204118          147  0.007193656   -151220.05   -150509.23 
   59400    299.56332   -113.64581      2204118          147  0.007193656   -151199.73   -150490.74 
   59500    304.31528    73.015006      2204118          147  0.007193656   -151187.04    -150466.8 
   59600    302.68778    42.967339      2204118          147  0.007193656   -151191.03   -150474.64 
   59700    304.54634    20.967088      2204118          147  0.007193656   -151243.81   -150523.02 
   59800    293.53426   -98.028531      2204118          147  0.007193656    -151236.3   -150541.58 
   59900    294.50844    64.144942      2204118          147  0.007193656   -151225.27   -150528.24 
   60000    300.91927    105.90351      2204118          147  0.007193656   -151225.52   -150513.32 
   60100    291.35954   -82.570854      2204118          147  0.007193656   -151180.81   -150491.23 
   60200    302.38426    17.426591      2204118          147  0.007193656   -151155.06   -150439.38 
   60300    319.34107    161.22077      2204118          147  0.007193656   -151216.35   -150460.55 
   60400    295.19056     80.88668      2204118          147  0.007193656   -151197.67   -150499.02 
   60500    298.55831   -147.71195      2204118          147  0.007193656   -151224.47   -150517.85 
   60600    288.75826     100.6891      2204118          147  0.007193656   -151211.28   -150527.86 
   60700    296.29905     38.86259      2204118          147  0.007193656   -151221.67    -150520.4 
   60800     295.6368   -117.63422      2204118          147  0.007193656   -151167.16   -150467.46 
   60900    298.92341    116.28273      2204118          147  0.007193656   -151153.37   -150445.89 
   61000     307.5197   -28.177227      2204118          147  0.007193656   -151202.18   -150474.36 
   61100    283.14971   -68.712293      2204118          147  0.007193656    -151179.7   -150509.55 
   61200     318.4924    123.87942      2204118          147  0.007193656   -151265.51   -150511.71 
   61300    312.12261   -21.085266      2204118          147  0.007193656   -151250.24   -150511.52 
   61400    309.88163    53.783381      2204118          147  0.007193656   -151248.97   -150515.55 
   61500     294.6204   -37.285098      2204118          147  0.007193656   -151234.54   -150537.24 
   61600    289.71431    48.127933      2204118          147  0.007193656   -151234.66   -150548.97 
   61700    295.99535    118.59179      2204118          147  0.007193656   -151225.92   -150525.37 
   61800    305.40027    85.768057      2204118          147  0.007193656   -151206.92   -150484.11 
   61900    289.50793   -51.506891      2204118          147  0.007193656   -151165.03   -150479.83 
   62000    307.22179   -16.601503      2204118          147  0.007193656   -151218.73   -150491.61 
   62100    296.05136   -22.584532      2204118          147  0.007193656   -151251.58   -150550.89 
   62200    294.40513   -2.5460906      2204118          147  0.007193656   -151266.15   -150569.37 
   62300    305.53216     73.92758      2204118          147  0.007193656   -151254.95   -150531.83 
   62400    308.49796    24.150591      2204118          147  0.007193656   -151231.89   -150501.75 
   62500    299.22579   -95.432136      2204118          147  0.007193656   -151205.25   -150497.05 
   62600    296.72514    126.34312      2204118          147  0.007193656   -151212.38    -150510.1 
   62700    292.65595    5.9172625      2204118          147  0.007193656   -151250.64   -150557.99 
   62800    293.60281    58.230731      2204118          147  0.007193656   -151265.84   -150570.95 
   62900    309.61007    152.12596      2204118          147  0.007193656   -151269.18    -150536.4 
   63000    306.43143   -168.11504      2204118          147  0.007193656   -151242.39   -150517.14 
   63100    301.96486   -6.6393117      2204118          147  0.007193656    -151225.4   -150510.72 
   63200    295.01756    25.639806      2204118          147  0.007193656   -151201.43   -150503.19 
   63300    298.03739    -70.79317      2204118          147  0.007193656   -151212.62   -150507.24 
   63400    307.29923    14.948672      2204118          147  0.007193656   -151234.59   -150507.29 
   63500    300.41429    47.912307      2204118          147  0.007193656   -151228.24   -150517.23 
   63600    291.95559    99.239994      2204118          147  0.007193656   -151219.81   -150528.82 
   63700     289.8101    -129.7191      2204118          147  0.007193656   -151210.08   -150524.17 
   63800    300.34968    91.714053      2204118          147  0.007193656   -151194.41   -150483.56 
   63900     327.6644   -50.040012      2204118          147  0.007193656   -151239.41    -150463.9 
   64000      299.479     35.73122      2204118          147  0.007193656   -151196.86   -150488.06 
   64100    273.67844    126.94777      2204118          147  0.007193656   -151194.28   -150546.55 
   64200    288.58826    54.925623      2204118          147  0.007193656   -151227.55   -150544.53 
   64300    305.91541    122.59171      2204118          147  0.007193656   -151239.59   -150515.56 
   64400    311.10226   -29.225731      2204118          147  0.007193656   -151218.46   -150482.16 
   64500    310.06936    125.99156      2204118          147  0.007193656   -151217.11   -150483.25 
   64600    302.17037   -106.79577      2204118          147  0.007193656   -151223.58   -150508.42 
   64700    291.22439    135.89852      2204118          147  0.007193656   -151234.94   -150545.68 
   64800    282.90603   -113.01087      2204118          147  0.007193656   -151268.88   -150599.31 
   64900    285.09362    19.097057      2204118          147  0.007193656   -151256.21   -150581.47 
   65000    302.16501    72.476634      2204118          147  0.007193656   -151253.46   -150538.31 
   65100     291.0141   -129.39635      2204118          147  0.007193656   -151200.73   -150511.97 
   65200    298.95336   -17.345595      2204118          147  0.007193656   -151203.14   -150495.59 
   65300    291.26456    164.79343      2204118          147  0.007193656   -151183.99   -150494.63 
   65400    298.27897   -143.34124      2204118          147  0.007193656   -151242.24   -150536.28 
   65500    285.63093   -17.520487      2204118          147  0.007193656   -151236.84   -150560.82 
   65600    296.79246      78.8674      2204118          147  0.007193656   -151242.37   -150539.93 
   65700    308.46311   -132.12071      2204118          147  0.007193656   -151231.25   -150501.19 
   65800    301.80616    52.956431      2204118          147  0.007193656   -151197.51   -150483.21 
   65900    296.77543    92.849893      2204118          147  0.007193656   -151194.75   -150492.35 
   66000    297.93757   -53.287488      2204118          147  0.007193656    -151222.5   -150517.36 
   66100    292.45445    44.947533      2204118          147  0.007193656   -151217.15   -150524.98 
   66200    299.50091    31.504676      2204118          147  0.007193656   -151215.48   -150506.63 
   66300    294.02796    30.903237      2204118          147  0.007193656   -151153.76   -150457.87 
   66400    317.04348   -87.041209      2204118          147  0.007193656   -151196.67    -150446.3 
   66500    310.12368   -0.5560889      2204118          147  0.007193656   -151232.23   -150498.24 
   66600    297.71024    1.2257662      2204118          147  0.007193656   -151229.68   -150525.07 
   66700    299.31774   -141.29624      2204118          147  0.007193656   -151232.61    -150524.2 
   66800    311.37181   -116.45777      2204118          147  0.007193656    -151242.3   -150505.36 
   66900    301.79243    23.018967      2204118          147  0.007193656    -151202.4   -150488.13 
   67000    315.77923   -103.36727      2204118          147  0.007193656   -151223.34   -150475.96 
   67100    287.68138   -23.721187      2204118          147  0.007193656   -151186.71   -150505.83 
   67200    290.33091   -14.628591      2204118          147  0.007193656   -151233.99   -150546.85 
   67300    285.89513    56.400495      2204118          147  0.007193656   -151230.87   -150554.22 
   67400    295.40615   -73.074785      2204118          147  0.007193656   -151219.66    -150520.5 
   67500    290.11664    132.36589      2204118          147  0.007193656   -151165.12   -150478.49 
   67600     303.8539   -29.686326      2204118          147  0.007193656   -151204.37   -150485.22 
   67700    315.90133   -198.07009      2204118          147  0.007193656   -151257.36    -150509.7 
   67800    320.15689    82.903887      2204118          147  0.007193656   -151296.05   -150538.31 
   67900    302.64657    3.0537528      2204118          147  0.007193656   -151265.96   -150549.66 
   68000    301.21189    3.5084169      2204118          147  0.007193656   -151245.05   -150532.15 
   68100    311.11101   -15.588195      2204118          147  0.007193656   -151220.53    -150484.2 
   68200    295.88182    -28.20093      2204118          147  0.007193656   -151170.45   -150470.17 
   68300    307.97564   -68.970072      2204118          147  0.007193656   -151233.46   -150504.56 
   68400    295.19079    22.712168      2204118          147  0.007193656   -151232.28   -150533.63 
   68500    293.81772    130.40549      2204118          147  0.007193656   -151228.05   -150532.65 
   68600    296.51104   -120.54276      2204118          147  0.007193656   -151216.84   -150515.06 
   68700    310.52457   -112.61272      2204118          147  0.007193656   -151225.27   -150490.34 
   68800    320.59522    143.29263      2204118          147  0.007193656   -151217.35   -150458.57 
   68900    319.12972   -20.037861      2204118          147  0.007193656   -151196.89   -150441.59 
   69000    295.74708    9.0445742      2204118          147  0.007193656   -151184.76    -150484.8 
   69100    301.26864   -32.380205      2204118          147  0.007193656   -151231.93    -150518.9 
   69200    309.85627   -15.561037      2204118          147  0.007193656   -151261.66   -150528.31 
   69300    306.49528   -7.2428856      2204118          147  0.007193656   -151259.82   -150534.42 
   69400    306.61697    -70.23864      2204118          147  0.007193656    -151240.3   -150514.61 
   69500    309.82306   -1.7642454      2204118          147  0.007193656   -151208.99   -150475.71 
   69600    295.11759     6.271941      2204118          147  0.007193656   -151173.83   -150475.35 
   69700    294.65178    19.566608      2204118          147  0.007193656   -151224.26   -150526.89 
   69800    299.68049   -44.628271      2204118          147  0.007193656   -151259.41   -150550.14 
   69900    297.36277    31.104808      2204118          147  0.007193656   -151241.14   -150537.35 
   70000    294.42395    13.790468      2204118          147  0.007193656   -151216.44   -150519.61 
   70100    283.08999    16.101432      2204118          147  0.007193656   -151180.26   -150510.25 
   70200    294.18002    56.044932      2204118          147  0.007193656   -151206.46   -150510.21 
   70300    310.23471    7.4985845      2204118          147  0.007193656   -151262.55    -150528.3 
   70400     305.3153   -15.198938      2204118          147  0.007193656   -151281.76   -150559.15 
   70500     298.9952    12.466702      2204118          147  0.007193656   -151283.93   -150576.28 
   70600    286.28026    -66.91603      2204118          147  0.007193656   -151234.33   -150556.78 
   70700    296.62707    34.688188      2204118          147  0.007193656   -151202.26   -150500.22 
   70800      307.456    172.18188      2204118          147  0.007193656   -151226.85   -150499.17 
   70900    292.33625    34.217091      2204118          147  0.007193656   -151221.49    -150529.6 
   71000    294.23888    51.981977      2204118          147  0.007193656   -151248.38   -150551.99 
   71100    297.47997    110.09311      2204118          147  0.007193656   -151250.86    -150546.8 
   71200    307.48508   -2.5872217      2204118          147  0.007193656   -151229.74   -150501.99 
   71300    298.72733   -59.294768      2204118          147  0.007193656   -151183.62    -150476.6 
   71400    314.46024    93.082709      2204118          147  0.007193656   -151237.19   -150492.94 
   71500    301.79478   -79.272267      2204118          147  0.007193656   -151252.52   -150538.24 
   71600    289.56994    18.791139      2204118          147  0.007193656   -151236.96   -150551.62 
   71700    302.64136    3.3040402      2204118          147  0.007193656   -151261.53   -150545.25 
   71800    302.92079   0.77068504      2204118          147  0.007193656      -151237   -150520.06 
   71900    316.15849   -80.234177      2204118          147  0.007193656   -151213.59   -150465.31 
   72000    315.38587    62.747355      2204118          147  0.007193656   -151215.77   -150469.33 
   72100    297.16687   -7.9676831      2204118          147  0.007193656    -151200.2   -150496.88 
   72200    304.68986    55.947152      2204118          147  0.007193656   -151237.96   -150516.84 
   72300    300.17796   -29.217432      2204118          147  0.007193656   -151244.88   -150534.43 
   72400    294.74409     56.86659      2204118          147  0.007193656   -151242.47   -150544.88 
   72500    277.55398     16.32607      2204118          147  0.007193656   -151230.52   -150573.61 
   72600    293.65771   -106.85712      2204118          147  0.007193656   -151290.32   -150595.31 
   72700     304.7477    100.79338      2204118          147  0.007193656   -151283.91   -150562.65 
   72800     301.5985     43.97701      2204118          147  0.007193656   -151234.15   -150520.33 
   72900    280.20695    42.214072      2204118          147  0.007193656   -151173.16   -150509.98 
   73000    304.13955    131.68469      2204118          147  0.007193656   -151229.58   -150509.76 
   73100     296.2271    43.757533      2204118          147  0.007193656   -151249.16   -150548.06 
   73200    296.09594   -84.692394      2204118          147  0.007193656   -151282.29    -150581.5 
   73300    286.45551   -53.664614      2204118          147  0.007193656   -151249.95   -150571.98 
   73400    286.60765    182.69873      2204118          147  0.007193656   -151222.33      -150544 
   73500    296.24122   -79.023037      2204118          147  0.007193656   -151223.63   -150522.49 
   73600    306.65867    35.763481      2204118          147  0.007193656   -151246.86   -150521.07 
   73700    308.38541    14.252413      2204118          147  0.007193656   -151262.27    -150532.4 
   73800    297.60364    9.7334945      2204118          147  0.007193656   -151269.12   -150564.76 
   73900    283.45763   -18.114777      2204118          147  0.007193656   -151270.68   -150599.81 
   74000      293.291   -56.591974      2204118          147  0.007193656   -151268.75    -150574.6 
   74100    317.76295    49.228741      2204118          147  0.007193656   -151276.87    -150524.8 
   74200    303.93875    105.98834      2204118          147  0.007193656   -151230.74   -150511.39 
   74300    299.17854    110.60558      2204118          147  0.007193656   -151223.21   -150515.13 
   74400       292.32    -130.7708      2204118          147  0.007193656    -151223.7   -150531.85 
   74500    296.80577   -100.31212      2204118          147  0.007193656   -151272.77    -150570.3 
   74600     290.5592    5.5087225      2204118          147  0.007193656   -151273.24   -150585.56 
   74700    291.46696    -83.17677      2204118          147  0.007193656   -151226.15   -150536.32 
   74800    296.57115    50.112453      2204118          147  0.007193656   -151197.96   -150496.05 
   74900     308.9859    71.285978      2204118          147  0.007193656    -151233.1    -150501.8 
   75000    311.26798   -125.96856      2204118          147  0.007193656   -151264.32   -150527.62 
[...]
  381600    298.23017   -201.72368      2204118          147  0.007193656   -151371.52   -150665.68 
  381700    301.97068    158.92928      2204118          147  0.007193656    -151345.6    -150630.9 
  381800    306.69433    77.574563      2204118          147  0.007193656    -151354.6   -150628.73 
  381900    311.46165    -204.7275      2204118          147  0.007193656   -151367.45    -150630.3 
  382000    313.17568    102.76194      2204118          147  0.007193656   -151378.14   -150636.92 
  382100    290.32017    56.936036      2204118          147  0.007193656   -151354.26   -150667.14 
  382200    284.64416   -108.45452      2204118          147  0.007193656   -151370.37   -150696.69 
  382300    287.11007    115.45875      2204118          147  0.007193656   -151374.68   -150695.16 
  382400    301.74015    6.5150287      2204118          147  0.007193656   -151351.29   -150637.14 
  382500    310.46423   -24.619519      2204118          147  0.007193656   -151357.73   -150622.94 
  382600    297.54748    106.00496      2204118          147  0.007193656    -151341.4   -150637.17 
  382700    288.45163   -78.589833      2204118          147  0.007193656   -151350.53   -150667.84 
  382800    296.57138   -35.716326      2204118          147  0.007193656   -151387.21   -150685.29 
  382900    307.15149    137.14466      2204118          147  0.007193656   -151393.06   -150666.11 
  383000    313.82759     3.214173      2204118          147  0.007193656   -151357.01   -150614.25 
  383100    299.41549   -123.26378      2204118          147  0.007193656    -151312.5   -150603.85 
  383200    315.50577    157.29246      2204118          147  0.007193656    -151373.7   -150626.98 
  383300    301.35258     2.754463      2204118          147  0.007193656   -151382.63    -150669.4 
  383400    290.70364   -204.41996      2204118          147  0.007193656    -151367.4   -150679.37 
  383500    281.98191    93.706667      2204118          147  0.007193656   -151330.45   -150663.06 
  383600    301.19903    75.943605      2204118          147  0.007193656   -151367.13   -150654.26 
  383700    306.83551   -124.60589      2204118          147  0.007193656   -151370.42   -150644.22 
  383800     295.1168    60.718612      2204118          147  0.007193656   -151339.86   -150641.39 
  383900    294.16249    40.462764      2204118          147  0.007193656   -151346.48   -150650.27 
  384000    295.58073   -72.093194      2204118          147  0.007193656   -151394.95   -150695.39 
  384100    296.15169     152.3578      2204118          147  0.007193656   -151405.09   -150704.17 
  384200     302.0687   -30.154251      2204118          147  0.007193656   -151375.52   -150660.59 
  384300    302.36879   -47.871073      2204118          147  0.007193656   -151353.48   -150637.85 
  384400    293.21857    57.977499      2204118          147  0.007193656    -151329.3   -150635.32 
  384500     303.3945    77.669965      2204118          147  0.007193656   -151367.78   -150649.72 
  384600    311.46062    -77.01643      2204118          147  0.007193656   -151434.89   -150697.73 
  384700    277.14806     205.8263      2204118          147  0.007193656   -151360.83   -150704.89 
  384800    285.58621   -40.978615      2204118          147  0.007193656   -151352.37   -150676.45 
  384900    296.34489   -6.5756025      2204118          147  0.007193656    -151362.1   -150660.72 
  385000    303.15473    157.59571      2204118          147  0.007193656    -151368.2    -150650.7 
  385100    308.51953   -3.0984716      2204118          147  0.007193656    -151367.1   -150636.91 
  385200    295.46643   -97.905744      2204118          147  0.007193656   -151325.66   -150626.36 
  385300    304.58143    185.04209      2204118          147  0.007193656   -151335.34   -150614.46 
  385400    298.80452   -17.032777      2204118          147  0.007193656   -151343.48   -150636.28 
  385500    280.06433   -70.037269      2204118          147  0.007193656      -151340   -150677.15 
  385600    286.88868    172.45962      2204118          147  0.007193656   -151371.38   -150692.38 
  385700     293.3058   -125.48597      2204118          147  0.007193656   -151366.75   -150672.56 
  385800    302.77542    2.5840898      2204118          147  0.007193656   -151340.46   -150623.87 
  385900    322.08566     82.06167      2204118          147  0.007193656   -151382.07   -150619.77 
  386000    302.22917   -125.81758      2204118          147  0.007193656   -151354.79   -150639.49 
  386100    292.31418    178.69556      2204118          147  0.007193656    -151361.3   -150669.46 
  386200    290.82454   -2.0945383      2204118          147  0.007193656   -151377.47   -150689.15 
  386300    293.91628   -165.68977      2204118          147  0.007193656   -151384.75   -150689.12 
  386400    296.45472    163.23722      2204118          147  0.007193656   -151332.74    -150631.1 
  386500    305.86478    130.13882      2204118          147  0.007193656   -151331.69   -150607.78 
  386600    311.55439   -60.715572      2204118          147  0.007193656    -151362.3   -150624.92 
  386700    295.74014    71.049493      2204118          147  0.007193656   -151365.35    -150665.4 
  386800    299.16418    70.009396      2204118          147  0.007193656   -151386.78   -150678.73 
  386900    302.95803   -101.51555      2204118          147  0.007193656   -151390.34   -150673.31 
  387000     286.2726    82.595362      2204118          147  0.007193656   -151328.12   -150650.58 
  387100    304.40822   -84.384166      2204118          147  0.007193656   -151341.35   -150620.89 
  387200    313.05637     9.818316      2204118          147  0.007193656   -151317.59   -150576.66 
  387300    334.19211   0.71736748      2204118          147  0.007193656   -151338.34   -150547.39 
  387400    313.51643     69.13688      2204118          147  0.007193656   -151341.31   -150599.29 
  387500    307.58092   -77.404748      2204118          147  0.007193656   -151364.58   -150636.61 
  387600     294.4917    101.19535      2204118          147  0.007193656   -151364.03   -150667.03 
  387700    288.68606   -11.142693      2204118          147  0.007193656   -151369.29   -150686.04 
  387800    303.18925   -111.92819      2204118          147  0.007193656   -151383.51   -150665.93 
  387900    297.27931    143.35447      2204118          147  0.007193656   -151323.64   -150620.05 
  388000    312.34445    8.0482918      2204118          147  0.007193656   -151359.21   -150619.97 
  388100    288.73577   -129.99123      2204118          147  0.007193656    -151322.5   -150639.13 
  388200    295.93235    194.11615      2204118          147  0.007193656   -151350.48   -150650.08 
  388300    296.40578    7.5293627      2204118          147  0.007193656   -151359.92    -150658.4 
  388400    297.84421   -13.584453      2204118          147  0.007193656    -151374.7   -150669.78 
  388500    308.60754    153.67135      2204118          147  0.007193656   -151411.36   -150680.96 
  388600    305.17175   -53.283353      2204118          147  0.007193656   -151394.76   -150672.49 
  388700    293.99332   -197.06449      2204118          147  0.007193656    -151331.2   -150635.38 
  388800    292.14544    240.51548      2204118          147  0.007193656    -151309.9   -150618.46 
  388900     297.5834   -6.0298352      2204118          147  0.007193656   -151346.79   -150642.48 
  389000    274.60851   -26.083995      2204118          147  0.007193656   -151341.35   -150691.42 
  389100    291.70609    128.55603      2204118          147  0.007193656   -151383.91   -150693.51 
  389200    294.41927   -67.424853      2204118          147  0.007193656   -151375.59   -150678.77 
  389300    299.37792   -44.036528      2204118          147  0.007193656   -151362.05    -150653.5 
  389400    299.70008      168.394      2204118          147  0.007193656   -151349.97   -150640.66 
  389500    308.33077   -224.45806      2204118          147  0.007193656    -151375.6   -150645.85 
  389600    295.28712     15.85097      2204118          147  0.007193656   -151345.76   -150646.88 
  389700    303.20631    70.977043      2204118          147  0.007193656   -151350.42   -150632.81 
  389800    311.27664    24.976207      2204118          147  0.007193656   -151366.34   -150629.62 
  389900    285.04199   -97.925621      2204118          147  0.007193656   -151370.11   -150695.48 
  390000    292.07829    123.46787      2204118          147  0.007193656   -151395.11   -150703.83 
  390100    293.30483     38.17794      2204118          147  0.007193656   -151368.65   -150674.47 
  390200    302.18046   -72.964004      2204118          147  0.007193656   -151347.87   -150632.68 
  390300    315.35938    48.318559      2204118          147  0.007193656   -151364.35   -150617.97 
  390400    306.76053    71.170852      2204118          147  0.007193656   -151347.53    -150621.5 
  390500    286.86854    117.50478      2204118          147  0.007193656   -151351.08   -150672.13 
  390600    284.68481   -1.5841225      2204118          147  0.007193656   -151370.62   -150696.84 
  390700    298.05346    15.051038      2204118          147  0.007193656   -151382.33   -150676.91 
  390800    294.36864   -39.554675      2204118          147  0.007193656      -151342   -150645.29 
  390900    314.98207   -84.618462      2204118          147  0.007193656   -151372.77   -150627.28 
  391000    314.18344    104.08238      2204118          147  0.007193656   -151372.06   -150628.46 
  391100    302.41653     22.41289      2204118          147  0.007193656   -151393.36   -150677.61 
  391200    295.91518   -100.92377      2204118          147  0.007193656   -151409.12   -150708.76 
  391300    293.82658    80.640151      2204118          147  0.007193656   -151380.35   -150684.93 
  391400     298.0098    127.09314      2204118          147  0.007193656   -151356.24   -150650.93 
  391500    299.31149   -132.61992      2204118          147  0.007193656   -151340.55   -150632.15 
  391600    298.62482    48.015591      2204118          147  0.007193656   -151330.03   -150623.26 
  391700    303.60167   -47.135166      2204118          147  0.007193656   -151374.71   -150656.16 
  391800    289.75662   -76.186686      2204118          147  0.007193656   -151391.21   -150705.43 
  391900    290.27722    163.51514      2204118          147  0.007193656   -151381.48   -150694.46 
  392000    295.18052   -64.218165      2204118          147  0.007193656   -151359.96   -150661.34 
  392100    301.93575   -209.76473      2204118          147  0.007193656   -151355.31    -150640.7 
  392200    309.11166   -20.177936      2204118          147  0.007193656   -151360.39    -150628.8 
  392300    297.07039    133.49516      2204118          147  0.007193656   -151331.12   -150628.02 
  392400    299.18079   -39.470063      2204118          147  0.007193656   -151383.73   -150675.64 
  392500    291.81884   -5.4015899      2204118          147  0.007193656   -151396.94   -150706.27 
  392600     300.0147    129.42949      2204118          147  0.007193656   -151393.06      -150683 
  392700    303.24038     7.709569      2204118          147  0.007193656   -151362.83   -150645.13 
  392800    303.30829   -120.92108      2204118          147  0.007193656   -151344.06    -150626.2 
  392900    293.95533    129.86851      2204118          147  0.007193656    -151320.4   -150624.67 
  393000    309.99154   -76.672532      2204118          147  0.007193656   -151389.12   -150655.44 
  393100    294.48426   -54.581099      2204118          147  0.007193656    -151400.2   -150703.22 
  393200    298.93194    160.34867      2204118          147  0.007193656   -151402.64   -150695.14 
  393300    291.68382   -114.61494      2204118          147  0.007193656   -151351.44   -150661.09 
  393400     292.2681   -107.53653      2204118          147  0.007193656    -151323.6   -150631.87 
  393500    300.27708   -24.976633      2204118          147  0.007193656   -151339.72   -150629.03 
  393600    304.07039   -57.157387      2204118          147  0.007193656   -151360.99   -150641.33 
  393700    296.66155   -18.454315      2204118          147  0.007193656   -151356.57   -150654.44 
  393800    295.23177    69.683249      2204118          147  0.007193656   -151356.08   -150657.34 
  393900    307.90419   -189.96767      2204118          147  0.007193656   -151374.26   -150645.52 
  394000    324.37462   -56.952067      2204118          147  0.007193656   -151350.18   -150582.46 
  394100    323.59119    120.20644      2204118          147  0.007193656   -151335.91   -150570.04 
  394200    309.65487   -279.29237      2204118          147  0.007193656   -151345.58   -150612.71 
  394300    311.72691   -12.820739      2204118          147  0.007193656   -151373.44   -150635.66 
  394400    302.67518     213.8246      2204118          147  0.007193656    -151374.1   -150657.74 
  394500    294.36992   -159.82216      2204118          147  0.007193656   -151365.16   -150668.45 
  394600    308.03453     67.45215      2204118          147  0.007193656   -151353.38   -150624.34 
  394700    313.83308    83.118628      2204118          147  0.007193656   -151337.75   -150594.98 
  394800    301.58974    -141.0208      2204118          147  0.007193656   -151334.61   -150620.81 
  394900    299.31007    127.37256      2204118          147  0.007193656   -151350.94   -150642.54 
  395000    287.63676    194.75647      2204118          147  0.007193656   -151333.74   -150652.97 
  395100    299.65479   -127.31741      2204118          147  0.007193656   -151359.53   -150650.32 
  395200     294.1083    81.359947      2204118          147  0.007193656   -151321.32   -150625.24 
  395300    307.50314    110.13434      2204118          147  0.007193656   -151292.81   -150565.02 
  395400    307.72928    -95.85754      2204118          147  0.007193656   -151307.71   -150579.39 
  395500    304.80136   -129.97581      2204118          147  0.007193656   -151347.65   -150626.25 
  395600    303.10173    70.953565      2204118          147  0.007193656    -151366.4   -150649.03 
  395700    296.09564   -189.31188      2204118          147  0.007193656   -151361.99    -150661.2 
  395800    286.91184    29.427269      2204118          147  0.007193656    -151330.9   -150651.85 
  395900    303.48822    239.23666      2204118          147  0.007193656   -151324.52   -150606.23 
  396000    287.93798   -132.54596      2204118          147  0.007193656   -151277.15   -150595.67 
  396100    309.74709    89.382895      2204118          147  0.007193656   -151376.85   -150643.75 
  396200    289.05479    104.27931      2204118          147  0.007193656   -151360.97   -150676.84 
  396300    307.63178   -231.32863      2204118          147  0.007193656   -151409.94   -150681.85 
  396400     289.1225    123.02939      2204118          147  0.007193656   -151337.88   -150653.59 
  396500    299.55072    71.778656      2204118          147  0.007193656    -151327.1   -150618.14 
  396600    304.22834   -146.57862      2204118          147  0.007193656   -151331.04   -150611.01 
  396700    304.57034   -40.288695      2204118          147  0.007193656   -151347.29   -150626.45 
  396800    311.19887    72.669805      2204118          147  0.007193656   -151375.36   -150638.83 
  396900    303.44614   -11.807372      2204118          147  0.007193656   -151369.72   -150651.53 
  397000    288.40746   -77.199497      2204118          147  0.007193656   -151338.64   -150656.05 
  397100     288.3337    33.325444      2204118          147  0.007193656    -151330.4   -150647.99 
  397200    291.39926   -38.214848      2204118          147  0.007193656   -151325.88   -150636.21 
  397300    295.07267   -186.34242      2204118          147  0.007193656   -151314.44   -150616.07 
  397400    317.89371   -4.4846698      2204118          147  0.007193656   -151349.19   -150596.81 
  397500    304.06796    12.942742      2204118          147  0.007193656   -151345.21   -150625.56 
  397600    296.13143   -83.747769      2204118          147  0.007193656   -151367.65   -150666.78 
  397700    301.94382   -8.4806383      2204118          147  0.007193656   -151386.37   -150671.74 
  397800    300.47909    7.9915903      2204118          147  0.007193656   -151359.54   -150648.38 
  397900    301.64662  -0.52822038      2204118          147  0.007193656   -151318.28   -150604.36 
  398000    286.43272    50.551103      2204118          147  0.007193656   -151277.36   -150599.44 
  398100    313.53779    4.4548659      2204118          147  0.007193656      -151360   -150617.93 
  398200    304.74638    41.735799      2204118          147  0.007193656   -151364.32   -150643.06 
  398300    291.33842    52.400802      2204118          147  0.007193656   -151344.96   -150655.43 
  398400    285.07748   -116.52929      2204118          147  0.007193656   -151342.46   -150667.75 
  398500    298.89433    58.589529      2204118          147  0.007193656   -151389.06   -150681.64 
  398600    303.74414   -63.932095      2204118          147  0.007193656   -151414.54   -150695.65 
  398700      279.867   -96.745831      2204118          147  0.007193656   -151338.72   -150676.34 
  398800    291.14601   -134.08495      2204118          147  0.007193656   -151320.99   -150631.92 
  398900     290.7884    75.690711      2204118          147  0.007193656   -151311.38   -150623.15 
  399000    304.51572   -88.971648      2204118          147  0.007193656   -151347.41   -150626.69 
  399100    296.01429   -140.10435      2204118          147  0.007193656    -151369.6   -150669.01 
  399200    270.65307    26.742118      2204118          147  0.007193656   -151333.99   -150693.42 
  399300    286.86057    52.129188      2204118          147  0.007193656   -151356.58   -150677.65 
  399400    284.68737   -86.416735      2204118          147  0.007193656   -151311.35   -150637.56 
  399500    320.19861   -21.103814      2204118          147  0.007193656   -151377.59   -150619.75 
  399600    304.97205    212.45849      2204118          147  0.007193656   -151360.55   -150638.76 
  399700    292.08623   -54.956177      2204118          147  0.007193656   -151352.44   -150661.14 
  399800    293.62379   -82.161697      2204118          147  0.007193656   -151369.52   -150674.58 
  399900    306.09321    153.86121      2204118          147  0.007193656    -151392.1   -150667.65 
  400000    308.08325   -132.45354      2204118          147  0.007193656   -151353.76   -150624.59 
  400057    314.83022    -70.12918      2204118          147  0.007193656   -151357.72   -150612.59 
Loop time of 4548.57 on 16 procs for 400000 steps with 795 atoms

Performance: 1.899 ns/day, 12.635 hours/ns, 87.940 timesteps/s
99.9% CPU use with 16 MPI tasks x no OpenMP threads

MPI task timing breakdown:
Section |  min time  |  avg time  |  max time  |%varavg| %total
---------------------------------------------------------------
Pair    | 0.17518    | 1137.2     | 3702       |4100.5 | 25.00
Neigh   | 0.011359   | 1.2891     | 2.64       | 112.5 |  0.03
Comm    | 0.23874    | 639.65     | 2520       |3689.9 | 14.06
Output  | 0.35865    | 0.38028    | 0.43065    |   2.8 |  0.01
Modify  | 824.1      | 2769.1     | 4547.1     |3393.7 | 60.88
Other   |            | 0.8707     |            |       |  0.02

Nlocal:        49.6875 ave         208 max           0 min
Histogram: 12 0 0 0 0 0 0 0 0 4
Nghost:        160.562 ave         429 max           0 min
Histogram: 8 0 0 0 0 4 0 0 0 4
Neighs:        3059.50 ave       12835 max           0 min
Histogram: 12 0 0 0 0 0 0 0 0 4

Total # of neighbors = 48952
Ave neighs/atom = 61.574843
Neighbor list builds = 5211
Dangerous builds = 0

write_data graphene_single_layer_ReaxFF_795_C_temp_300K.data
System init for write_data ...
Total wall time: 1:15:52
