
# System definition
read_data graphene_single_layer_x-45_y-45_795_C.data
Reading data file ...
  orthogonal box = (-51.000000 -51.000000 -51.000000) to (96.000000 96.000000 51.000000)
  2 by 4 by 2 MPI processor grid
  reading atoms ...
  795 atoms
  read_data CPU = 0.004 seconds

pair_style reax/c NULL
pair_coeff * * ffield.reax.cho C
Reading potential file ffield.reax.cho with DATE: 2011-02-18
fix qeq_reax all qeq/reax 1 0.0 10.0 1.0e-6 reax/c


# Minimization
timestep 0.25
min_style cg
thermo 100
thermo_style custom step temp press vol lx density pe etotal
dump 2 all custom 1000 graphene_single_layer_ReaxFF_795_C_temp_1400K.lammpstrj id type x y z
minimize 1.0e-6 1.0e-6 100 1000

CITE-CITE-CITE-CITE-CITE-CITE-CITE-CITE-CITE-CITE-CITE-CITE-CITE

Your simulation uses code contributions which should be cited:

- pair reaxff command:

@Article{Aktulga12,
 author = {H. M. Aktulga, J. C. Fogarty, S. A. Pandit, A. Y. Grama},
 title = {Parallel reactive molecular dynamics: Numerical methods and algorithmic techniques},
 journal = {Parallel Computing},
 year =    2012,
 volume =  38,
 pages =   {245--259}
}

- fix qeq/reaxff command:

@Article{Aktulga12,
 author = {H. M. Aktulga, J. C. Fogarty, S. A. Pandit, A. Y. Grama},
 title = {Parallel reactive molecular dynamics: Numerical methods and algorithmic techniques},
 journal = {Parallel Computing},
 year =    2012,
 volume =  38,
 pages =   {245--259}
}

CITE-CITE-CITE-CITE-CITE-CITE-CITE-CITE-CITE-CITE-CITE-CITE-CITE

WARNING: Using 'neigh_modify every 1 delay 0 check yes' setting during minimization (../min.cpp:188)
Neighbor list info ...
  update every 1 steps, delay 0 steps, check yes
  max neighbors/atom: 10000, page size: 100000
  master list distance cutoff = 10.4
  ghost atom cutoff = 10.4
  binsize = 5.2, bins = 29 29 20
  2 neighbor lists, perpetual/occasional/extra = 2 0 0
  (1) pair reax/c, perpetual
      attributes: half, newton off, ghost
      pair build: half/bin/newtoff/ghost
      stencil: full/ghost/bin/3d
      bin: standard
  (2) fix qeq/reax, perpetual, copy from (1)
      attributes: half, newton off, ghost
      pair build: copy
      stencil: none
      bin: none
Per MPI rank memory allocation (min/avg/max) = 7.965 | 10.90 | 14.56 Mbytes
Step Temp Press Volume Lx Density PotEng TotEng 
       0            0    4589.6155      2204118          147  0.007193656   -142445.78   -142445.78 
      57            0    1294.9092      2204118          147  0.007193656   -150031.46   -150031.46 
Loop time of 3.79116 on 16 procs for 57 steps with 795 atoms

99.9% CPU use with 16 MPI tasks x no OpenMP threads

Minimization stats:
  Stopping criterion = energy tolerance
  Energy initial, next-to-last, final = 
     -142445.777810412  -150031.434465826  -150031.460524184
  Force two-norm initial, final = 2416.1570 1787.6736
  Force max component initial, final = 272.51119 337.29483
  Final line search alpha, max atom move = 0.00017977701 0.060637855
  Iterations, force evaluations = 57 237

MPI task timing breakdown:
Section |  min time  |  avg time  |  max time  |%varavg| %total
---------------------------------------------------------------
Pair    | 0.0001697  | 0.75592    | 2.6458     | 107.9 | 19.94
Neigh   | 3.2396e-05 | 0.0017054  | 0.0036178  |   4.0 |  0.04
Comm    | 0.00036555 | 0.48136    | 1.8978     |  94.7 | 12.70
Output  | 0          | 0          | 0          |   0.0 |  0.00
Modify  | 1.1104     | 1.1138     | 1.1164     |   0.2 | 29.38
Other   |            | 1.438      |            |       | 37.94

Nlocal:        49.6875 ave         209 max           0 min
Histogram: 12 0 0 0 0 0 0 0 0 4
Nghost:        162.812 ave         432 max           0 min
Histogram: 8 0 0 0 0 4 0 0 0 4
Neighs:        3113.44 ave       13116 max           0 min
Histogram: 12 0 0 0 0 0 0 0 0 4

Total # of neighbors = 49815
Ave neighs/atom = 62.660377
Neighbor list builds = 6
Dangerous builds = 0

fix 1 all nvt temp 1400.0 1400.0 $(100.0*dt)
fix 1 all nvt temp 1400.0 1400.0 25
run 400000
Per MPI rank memory allocation (min/avg/max) = 6.841 | 9.777 | 13.44 Mbytes
Step Temp Press Volume Lx Density PotEng TotEng 
      57            0    1294.9092      2204118          147  0.007193656   -150031.46   -150031.46 
     100    121.52622    1524.1847      2204118          147  0.007193656   -150304.18   -150016.56 
     200    297.05732   -717.69081      2204118          147  0.007193656   -150480.16   -149777.09 
     300    352.72811   -853.07876      2204118          147  0.007193656   -150320.05   -149485.23 
     400    459.33662   -858.00272      2204118          147  0.007193656   -150131.35   -149044.21 
     500    691.00836    487.03846      2204118          147  0.007193656    -150028.5   -148393.05 
     600    686.25595    1105.5119      2204118          147  0.007193656   -149336.97   -147712.76 
     700    1037.6897   -273.74486      2204118          147  0.007193656   -149285.43   -146829.46 
     800    1062.5848   -771.34148      2204118          147  0.007193656   -148413.09   -145898.21 
     900    1139.0474   -932.75657      2204118          147  0.007193656   -147672.12   -144976.27 
    1000    1677.4431   -383.64877      2204118          147  0.007193656   -148053.65   -144083.54 
    1100    1535.1861    471.53389      2204118          147  0.007193656   -148072.13    -144438.7 
    1200    1145.1434    1498.0888      2204118          147  0.007193656   -147613.12   -144902.84 
    1300    1506.8212     153.9261      2204118          147  0.007193656   -148017.87   -144451.58 
    1400    1533.3349   -566.96712      2204118          147  0.007193656    -147895.3   -144266.26 
    1500    1308.2214   -643.93655      2204118          147  0.007193656   -147736.33   -144640.08 
    1600    1456.7503   -443.71804      2204118          147  0.007193656   -148192.08    -144744.3 
    1700    1428.6369    169.21686      2204118          147  0.007193656   -148411.29   -145030.05 
    1800    1229.2723    877.45783      2204118          147  0.007193656   -148131.17   -145221.77 
    1900     1457.989   -101.99067      2204118          147  0.007193656   -148123.71      -144673 
    2000     1456.767   -787.84235      2204118          147  0.007193656   -147734.49   -144286.67 
    2100    1396.5335   -706.93636      2204118          147  0.007193656   -147624.12   -144318.86 
    2200    1483.3538   -516.11698      2204118          147  0.007193656   -147903.13   -144392.38 
    2300    1571.1668    116.42025      2204118          147  0.007193656   -148470.55   -144751.97 
    2400      1169.78    1162.4548      2204118          147  0.007193656   -148027.77   -145259.18 
    2500      1402.16    908.71654      2204118          147  0.007193656   -148289.65   -144971.07 
    2600    1553.3066   -388.35706      2204118          147  0.007193656   -148403.93   -144727.62 
    2700    1327.8112   -665.77433      2204118          147  0.007193656   -148211.69   -145069.08 
    2800    1261.3454   -598.06073      2204118          147  0.007193656   -148079.63   -145094.32 
    2900    1401.4462    -322.9278      2204118          147  0.007193656    -147963.6   -144646.71 
    3000    1448.9602    372.55636      2204118          147  0.007193656   -147807.22   -144377.87 
    3100    1420.2621    735.23612      2204118          147  0.007193656    -147658.4   -144296.97 
    3200    1572.2549   -188.71862      2204118          147  0.007193656   -148290.78   -144569.62 
    3300    1374.4207   -512.34305      2204118          147  0.007193656   -148520.13    -145267.2 
    3400    1307.5437   -269.17545      2204118          147  0.007193656   -148591.18   -145496.53 
    3500    1303.9115   -93.167545      2204118          147  0.007193656   -148301.93   -145215.88 
    3600    1337.0517    728.83587      2204118          147  0.007193656   -147922.36   -144757.87 
    3700    1451.8594    1018.0296      2204118          147  0.007193656   -147690.75   -144254.54 
    3800    1596.9007    -53.92522      2204118          147  0.007193656   -148035.65   -144256.17 
    3900    1418.4704    -360.2745      2204118          147  0.007193656   -148327.37   -144970.19 
    4000    1250.3962   -415.56246      2204118          147  0.007193656   -148269.94   -145310.54 
    4100    1389.7106   -142.97531      2204118          147  0.007193656   -148422.32   -145133.21 
    4200    1495.8604    311.19205      2204118          147  0.007193656   -148336.41   -144796.07 
    4300    1418.2448    417.06263      2204118          147  0.007193656   -147903.73   -144547.09 
    4400    1506.0769   -135.98342      2204118          147  0.007193656    -148067.3   -144502.77 
    4500    1405.2861   -485.98334      2204118          147  0.007193656   -148309.99   -144984.01 
    4600    1303.4496   -39.041006      2204118          147  0.007193656   -148379.27   -145294.31 
    4700    1373.5441   -155.12102      2204118          147  0.007193656   -148465.92   -145215.07 
    4800      1325.62    639.85135      2204118          147  0.007193656   -147996.65   -144859.22 
    4900    1461.8269    806.01167      2204118          147  0.007193656    -147983.9    -144524.1 
    5000    1552.1848   -230.80307      2204118          147  0.007193656   -148237.14   -144563.49 
    5100    1395.3972   -325.14258      2204118          147  0.007193656   -148338.53   -145035.96 
    5200    1299.5783   -555.94191      2204118          147  0.007193656   -148372.47   -145296.68 
    5300    1338.5663   -354.55537      2204118          147  0.007193656   -148242.72   -145074.65 
    5400    1461.6541   -46.558417      2204118          147  0.007193656   -148108.76   -144649.38 
    5500    1387.8408    426.46472      2204118          147  0.007193656      -147803   -144518.31 
    5600    1504.5241    133.41002      2204118          147  0.007193656   -148270.52   -144709.66 
    5700    1403.4028   -108.26459      2204118          147  0.007193656   -148431.42    -145109.9 
    5800    1321.4124   -152.27573      2204118          147  0.007193656   -148474.64   -145347.17 
    5900    1332.2297   -96.046402      2204118          147  0.007193656   -148360.09   -145207.01 
    6000    1475.3894    280.49433      2204118          147  0.007193656   -148304.29   -144812.39 
    6100    1464.6804    360.58235      2204118          147  0.007193656    -148061.2   -144594.65 
    6200     1472.965    158.85806      2204118          147  0.007193656   -148128.65   -144642.49 
    6300    1398.2866   -213.94463      2204118          147  0.007193656   -148308.35   -144998.93 
    6400    1337.4271   -408.68204      2204118          147  0.007193656    -148377.8   -145212.42 
    6500    1347.1583   -42.660281      2204118          147  0.007193656   -148333.88   -145145.48 
    6600      1378.05   -7.9938063      2204118          147  0.007193656    -148153.2   -144891.68 
    6700    1487.0836      174.326      2204118          147  0.007193656   -148234.43   -144714.85 
    6800    1490.1214    17.138858      2204118          147  0.007193656   -148313.94   -144787.18 
    6900    1426.8372   -176.11054      2204118          147  0.007193656   -148453.72   -145076.74 
    7000    1344.1203    -139.1415      2204118          147  0.007193656   -148434.37   -145253.15 
    7100    1368.8904    9.5503099      2204118          147  0.007193656   -148431.86   -145192.03 
    7200    1354.6427    250.42993      2204118          147  0.007193656   -148147.11   -144940.99 
    7300    1459.0212    475.77778      2204118          147  0.007193656   -148224.26    -144771.1 
    7400    1413.8964   -42.234702      2204118          147  0.007193656   -148274.77   -144928.41 
    7500    1418.0653   -264.21117      2204118          147  0.007193656   -148482.65   -145126.43 
    7600    1351.4349   -210.51765      2204118          147  0.007193656   -148421.89   -145223.36 
    7700    1404.2105   -187.47595      2204118          147  0.007193656   -148414.68   -145091.24 
    7800    1341.8037    150.45221      2204118          147  0.007193656    -148090.7   -144914.97 
    7900    1420.8367    96.927182      2204118          147  0.007193656   -148319.21   -144956.43 
    8000    1403.8035   -32.447404      2204118          147  0.007193656   -148392.34   -145069.87 
    8100    1362.1587    64.379931      2204118          147  0.007193656   -148421.28   -145197.38 
    8200    1325.7568     52.74968      2204118          147  0.007193656   -148391.03   -145253.28 
    8300    1332.0781    51.883227      2204118          147  0.007193656   -148313.38   -145160.67 
    8400    1421.0022    336.19944      2204118          147  0.007193656    -148377.7   -145014.52 
    8500    1445.4422    74.374658      2204118          147  0.007193656   -148386.53   -144965.51 
    8600    1367.6696   -6.0238119      2204118          147  0.007193656   -148283.68   -145046.73 
    8700    1442.8419    54.931078      2204118          147  0.007193656   -148725.77    -145310.9 
    8800    1355.8369   -74.225565      2204118          147  0.007193656   -148531.73   -145322.79 
    8900    1300.5225   -75.423725      2204118          147  0.007193656   -148219.15   -145141.12 
    9000    1405.9452   -127.96674      2204118          147  0.007193656    -148291.7   -144964.16 
    9100    1453.4396   -72.262728      2204118          147  0.007193656   -148306.49   -144866.54 
    9200    1411.9177    33.716755      2204118          147  0.007193656   -148247.24   -144905.57 
    9300    1344.0931   -163.11974      2204118          147  0.007193656   -148310.53   -145129.38 
    9400    1358.2045      85.3983      2204118          147  0.007193656   -148438.88   -145224.33 
    9500    1328.2097    290.39127      2204118          147  0.007193656   -148277.24   -145133.68 
    9600    1378.3052   -74.701037      2204118          147  0.007193656   -148232.54   -144970.42 
    9700    1426.2685    97.315561      2204118          147  0.007193656   -148306.88   -144931.24 
    9800      1411.86   -4.2779913      2204118          147  0.007193656   -148335.54      -144994 
    9900    1346.3483   -83.975319      2204118          147  0.007193656   -148418.18   -145231.69 
   10000    1333.2728    83.116009      2204118          147  0.007193656   -148460.02   -145304.48 
   10100    1403.2795   -386.04336      2204118          147  0.007193656   -148473.14   -145151.91 
   10200    1421.3099   -43.184738      2204118          147  0.007193656   -148339.77   -144975.86 
   10300    1453.2971   -43.961276      2204118          147  0.007193656   -148365.91    -144926.3 
   10400    1407.2705   -128.91813      2204118          147  0.007193656   -148371.95   -145041.28 
   10500    1374.9986    132.38774      2204118          147  0.007193656   -148472.71   -145218.41 
   10600    1379.2699    145.08071      2204118          147  0.007193656   -148501.23   -145236.83 
   10700    1342.3938   -52.711235      2204118          147  0.007193656   -148304.55   -145127.42 
   10800    1431.7492    -25.87828      2204118          147  0.007193656   -148358.21    -144969.6 
   10900    1432.0342    30.785296      2204118          147  0.007193656    -148348.1   -144958.81 
   11000    1438.7629    67.112631      2204118          147  0.007193656   -148447.78   -145042.57 
   11100    1466.7462   -63.094091      2204118          147  0.007193656   -148762.16   -145290.72 
   11200    1347.4176   -77.755962      2204118          147  0.007193656   -148527.58   -145338.56 
   11300    1442.5727    26.952577      2204118          147  0.007193656   -148545.24   -145131.02 
   11400    1435.4263   -221.44802      2204118          147  0.007193656   -148396.14   -144998.83 
   11500    1410.2044   -273.68998      2204118          147  0.007193656   -148231.08   -144893.46 
   11600    1450.9767   -52.153059      2204118          147  0.007193656   -148313.26   -144879.15 
   11700    1411.5594    122.57821      2204118          147  0.007193656   -148461.03    -145120.2 
   11800    1405.7674    300.23319      2204118          147  0.007193656   -148592.44   -145265.32 
   11900    1330.0384    192.61389      2204118          147  0.007193656   -148329.81   -145181.92 
   12000    1428.6723   -38.804799      2204118          147  0.007193656   -148363.02   -144981.69 
   12100    1420.1483   -44.253634      2204118          147  0.007193656   -148328.06   -144966.91 
   12200    1444.9499   -14.871387      2204118          147  0.007193656   -148441.94   -145022.09 
   12300    1430.3727   -13.552458      2204118          147  0.007193656   -148496.31   -145110.96 
   12400     1342.956    100.81414      2204118          147  0.007193656   -148478.06    -145299.6 
   12500     1342.947   -100.11463      2204118          147  0.007193656    -148559.9   -145381.46 
   12600     1353.778   -128.12256      2204118          147  0.007193656   -148366.01   -145161.94 
   12700    1364.1836   -74.297875      2204118          147  0.007193656   -148287.21   -145058.52 
   12800     1439.627    144.17541      2204118          147  0.007193656   -148424.47   -145017.21 
   12900    1417.5063    78.967922      2204118          147  0.007193656   -148416.64   -145061.74 
   13000    1411.0869       169.43      2204118          147  0.007193656   -148539.19   -145199.48 
   13100    1279.2747   -62.314507      2204118          147  0.007193656   -148396.69   -145368.95 
   13200    1414.6392   -98.685756      2204118          147  0.007193656   -148523.64   -145175.52 
   13300    1346.4483    42.244973      2204118          147  0.007193656   -148240.78   -145054.06 
   13400     1412.172    67.449332      2204118          147  0.007193656   -148398.42   -145056.14 
   13500    1413.4375    238.47167      2204118          147  0.007193656   -148434.28   -145089.01 
   13600    1324.8194    57.792507      2204118          147  0.007193656   -148318.76   -145183.22 
   13700    1333.2824   -269.37537      2204118          147  0.007193656   -148396.41   -145240.85 
   13800    1432.2947    -208.1852      2204118          147  0.007193656   -148448.59   -145058.69 
   13900    1439.0856   -21.527897      2204118          147  0.007193656   -148307.84   -144901.87 
   14000    1484.9405    6.5002457      2204118          147  0.007193656   -148390.52   -144876.02 
   14100    1366.3564    130.91713      2204118          147  0.007193656   -148295.59   -145061.75 
   14200    1367.3158    20.299048      2204118          147  0.007193656   -148454.09   -145217.98 
   14300    1326.3701    25.473123      2204118          147  0.007193656   -148294.25   -145155.04 
   14400    1474.8517   -54.643276      2204118          147  0.007193656   -148476.65   -144986.03 
   14500    1470.0328    89.137781      2204118          147  0.007193656   -148406.81   -144927.59 
   14600    1349.1949   -95.851648      2204118          147  0.007193656   -148275.04   -145081.81 
   14700    1414.0443   -116.50725      2204118          147  0.007193656   -148468.13   -145121.42 
   14800    1354.3848   -73.436897      2204118          147  0.007193656   -148276.73   -145071.23 
   14900    1482.2654   -235.07928      2204118          147  0.007193656   -148445.06   -144936.89 
   15000    1452.6926    -170.8878      2204118          147  0.007193656   -148278.79   -144840.61 
   15100    1438.9671    276.16605      2204118          147  0.007193656   -148198.56   -144792.86 
   15200    1436.3826    269.29399      2204118          147  0.007193656   -148372.16   -144972.58 
   15300    1330.9207    109.81937      2204118          147  0.007193656    -148294.3   -145144.33 
   15400    1424.3963    3.6086169      2204118          147  0.007193656   -148549.56   -145178.35 
   15500    1355.0643   -78.826595      2204118          147  0.007193656   -148251.38   -145044.26 
   15600    1457.0499   -94.944382      2204118          147  0.007193656   -148268.26   -144819.76 
   15700    1422.5607    85.676968      2204118          147  0.007193656   -148228.51   -144861.64 
   15800     1493.332    202.99806      2204118          147  0.007193656   -148552.93   -145018.57 
   15900    1401.2414    159.20012      2204118          147  0.007193656    -148404.7   -145088.29 
   16000    1402.5746    -157.6206      2204118          147  0.007193656   -148433.25   -145113.69 
   16100     1355.357   -148.59751      2204118          147  0.007193656   -148336.95   -145129.14 
   16200    1410.2227   -45.615403      2204118          147  0.007193656   -148400.82   -145063.16 
   16300    1412.4496   -190.56235      2204118          147  0.007193656   -148323.15   -144980.21 
   16400    1512.3376    178.63543      2204118          147  0.007193656   -148424.19   -144844.85 
   16500    1415.7125    176.03297      2204118          147  0.007193656   -148321.57   -144970.92 
   16600    1387.7469    247.57581      2204118          147  0.007193656   -148405.73   -145121.26 
   16700    1392.6234    45.283652      2204118          147  0.007193656   -148410.83   -145114.82 
   16800    1435.9639    -15.20336      2204118          147  0.007193656   -148462.48   -145063.89 
   16900     1467.397   -96.380589      2204118          147  0.007193656   -148471.43   -144998.45 
   17000    1421.7829    18.603466      2204118          147  0.007193656   -148377.79   -145012.77 
   17100    1400.1137   -38.236373      2204118          147  0.007193656   -148305.89   -144992.16 
   17200     1410.635    17.435626      2204118          147  0.007193656   -148297.57   -144958.94 
   17300    1435.8881   -129.06467      2204118          147  0.007193656   -148373.89   -144975.48 
   17400    1372.3918   -37.967934      2204118          147  0.007193656    -148358.2   -145110.07 
   17500    1325.4338    95.455349      2204118          147  0.007193656   -148347.35   -145210.36 
   17600      1434.26    196.48605      2204118          147  0.007193656   -148553.53   -145158.98 
   17700    1455.6403    144.77894      2204118          147  0.007193656   -148352.34   -144907.19 
   17800    1408.2486    60.256494      2204118          147  0.007193656   -148230.73   -144897.74 
   17900    1458.4032   -70.187354      2204118          147  0.007193656   -148394.47   -144942.78 
   18000    1432.6224   -73.778113      2204118          147  0.007193656   -148446.21   -145055.53 
   18100    1367.7009    82.087799      2204118          147  0.007193656   -148544.67   -145307.65 
   18200     1344.671    112.76743      2204118          147  0.007193656   -148476.79   -145294.27 
   18300    1361.4227    133.88311      2204118          147  0.007193656   -148366.32   -145144.15 
   18400    1334.9008   -61.504504      2204118          147  0.007193656   -148178.12   -145018.72 
   18500    1345.8306   -97.307262      2204118          147  0.007193656   -148136.12   -144950.85 
   18600    1405.5691   -107.60516      2204118          147  0.007193656   -148322.64   -144995.99 
   18700    1430.9862   0.96214416      2204118          147  0.007193656   -148448.12   -145061.31 
   18800    1388.2988    91.085811      2204118          147  0.007193656   -148574.66   -145288.89 
   18900    1319.6427    208.98778      2204118          147  0.007193656   -148476.82   -145353.53 
   19000    1379.1468    77.519715      2204118          147  0.007193656   -148427.96   -145163.84 
   19100    1421.3802    140.21747      2204118          147  0.007193656   -148414.94   -145050.87 
   19200    1463.6547   -51.817066      2204118          147  0.007193656   -148480.05   -145015.92 
   19300    1380.1759   -95.711109      2204118          147  0.007193656   -148318.14   -145051.59 
   19400    1363.9401    -42.71224      2204118          147  0.007193656   -148460.92    -145232.8 
   19500    1367.9176   -218.38466      2204118          147  0.007193656   -148564.06   -145326.53 
   19600    1314.0794   -69.911084      2204118          147  0.007193656   -148248.49   -145138.38 
   19700    1396.7806   -85.902631      2204118          147  0.007193656   -148321.01   -145015.16 
   19800    1380.6735     47.99919      2204118          147  0.007193656   -148247.49   -144979.76 
   19900    1368.9739     17.77602      2204118          147  0.007193656   -148276.01   -145035.97 
   20000    1375.1572    263.94215      2204118          147  0.007193656   -148406.98   -145152.31 
   20100     1376.084     123.0653      2204118          147  0.007193656   -148580.07    -145323.2 
   20200    1374.3394    47.807207      2204118          147  0.007193656   -148527.58   -145274.84 
   20300     1412.008    41.994371      2204118          147  0.007193656   -148353.53   -145011.65 
   20400    1442.3165   -129.13131      2204118          147  0.007193656   -148360.98   -144947.36 
   20500    1406.7171      -41.743      2204118          147  0.007193656   -148349.69   -145020.32 
   20600     1396.235    60.957675      2204118          147  0.007193656   -148466.17   -145161.62 
   20700    1364.5498   -2.3076706      2204118          147  0.007193656   -148376.97    -145147.4 
   20800    1445.5193    107.69697      2204118          147  0.007193656   -148349.11   -144927.91 
   20900    1448.7727    24.381095      2204118          147  0.007193656   -148205.14   -144776.24 
   21000    1440.1089   -60.399623      2204118          147  0.007193656   -148257.83   -144849.43 
   21100    1427.2846   -181.75597      2204118          147  0.007193656   -148372.51   -144994.47 
   21200    1392.7583   -81.655231      2204118          147  0.007193656    -148338.5   -145042.17 
   21300     1335.109    174.66856      2204118          147  0.007193656   -148242.29    -145082.4 
   21400    1383.3113    322.49848      2204118          147  0.007193656   -148373.02   -145099.04 
   21500     1402.849    365.72854      2204118          147  0.007193656   -148510.52   -145190.31 
   21600    1355.2803   -38.677861      2204118          147  0.007193656   -148454.94   -145247.31 
   21700    1419.5926   -125.57171      2204118          147  0.007193656   -148516.84      -145157 
   21800    1480.4427   -120.24303      2204118          147  0.007193656   -148425.53   -144921.67 
   21900     1378.794   -94.559371      2204118          147  0.007193656   -148126.76   -144863.48 
   22000    1382.6058     88.32333      2204118          147  0.007193656   -148180.68   -144908.38 
   22100    1394.1879    9.3032828      2204118          147  0.007193656   -148424.68   -145124.96 
   22200    1349.7597    49.704886      2204118          147  0.007193656      -148379   -145184.44 
   22300    1414.3041   -45.526424      2204118          147  0.007193656   -148441.67   -145094.34 
   22400    1404.3221    8.0761929      2204118          147  0.007193656   -148302.21   -144978.51 
   22500    1453.0624   -29.993425      2204118          147  0.007193656   -148342.74   -144903.69 
   22600     1331.952    105.46964      2204118          147  0.007193656   -148321.25   -145168.84 
   22700    1337.5222    98.497346      2204118          147  0.007193656   -148414.29   -145248.69 
   22800    1360.8815   -90.531905      2204118          147  0.007193656   -148347.08   -145126.19 
   22900    1462.2211   -31.471876      2204118          147  0.007193656   -148411.58   -144950.85 
   23000    1411.9163   -99.387579      2204118          147  0.007193656   -148239.62   -144897.94 
   23100    1408.0371    97.157531      2204118          147  0.007193656   -148254.04   -144921.55 
   23200    1433.5024    190.81123      2204118          147  0.007193656   -148568.22   -145175.46 
   23300    1377.8253   -71.010824      2204118          147  0.007193656   -148451.26   -145190.28 
   23400    1415.4637   -56.012129      2204118          147  0.007193656   -148468.86    -145118.8 
   23500    1360.5664   -91.912562      2204118          147  0.007193656   -148152.19   -144932.05 
   23600    1397.8536   -56.924395      2204118          147  0.007193656   -148195.63   -144887.25 
   23700    1401.4525   -34.347392      2204118          147  0.007193656   -148382.89   -145065.99 
   23800    1321.1401    196.34142      2204118          147  0.007193656    -148299.6   -145172.77 
   23900    1428.3112    108.56883      2204118          147  0.007193656   -148520.74   -145140.27 
   24000    1380.4366   -102.71105      2204118          147  0.007193656   -148339.14   -145071.97 
   24100    1404.0873   -24.770674      2204118          147  0.007193656    -148230.4   -144907.26 
   24200    1461.1545   -215.79546      2204118          147  0.007193656   -148272.79   -144814.58 
   24300    1411.0088   -40.900608      2204118          147  0.007193656   -148291.25   -144951.73 
   24400    1358.8163   -8.5755638      2204118          147  0.007193656    -148452.9    -145236.9 
   24500    1396.0525   -159.54848      2204118          147  0.007193656   -148500.97   -145196.84 
   24600    1331.3817    133.42545      2204118          147  0.007193656   -148169.95   -145018.89 
   24700    1519.0165    4.1860823      2204118          147  0.007193656   -148476.85    -144881.7 
   24800    1418.1032    9.8020048      2204118          147  0.007193656   -148294.42   -144938.11 
   24900    1376.9924    25.678912      2204118          147  0.007193656   -148358.31    -145099.3 
   25000    1294.0946   -12.181699      2204118          147  0.007193656   -148224.91    -145162.1 
   25100    1369.8652    37.133925      2204118          147  0.007193656   -148354.08   -145111.94 
   25200    1391.6665   -128.19535      2204118          147  0.007193656   -148271.94    -144978.2 
   25300    1476.4851   -49.604077      2204118          147  0.007193656   -148395.49      -144901 
   25400    1412.3743   -39.828988      2204118          147  0.007193656   -148288.04   -144945.28 
   25500    1407.3116    168.41445      2204118          147  0.007193656   -148519.01   -145188.23 
   25600    1385.7285    18.638968      2204118          147  0.007193656   -148499.33   -145219.64 
   25700    1419.5076   -99.316044      2204118          147  0.007193656   -148459.87   -145100.23 
   25800     1400.321   -49.394561      2204118          147  0.007193656   -148221.97   -144907.74 
   25900    1434.4241   -134.28998      2204118          147  0.007193656   -148306.44    -144911.5 
   26000    1398.3381   -32.492642      2204118          147  0.007193656   -148271.89   -144962.36 
   26100    1434.0661    443.23503      2204118          147  0.007193656   -148418.16   -145024.07 
   26200    1328.4703     223.1834      2204118          147  0.007193656   -148379.62   -145235.45 
   26300    1389.5496    58.739364      2204118          147  0.007193656   -148585.71   -145296.98 
   26400    1383.6496   -76.207036      2204118          147  0.007193656   -148460.97    -145186.2 
   26500    1415.5879   -38.788292      2204118          147  0.007193656   -148473.58   -145123.22 
   26600     1410.665   -46.488943      2204118          147  0.007193656   -148361.87   -145023.16 
   26700    1449.0336   -17.736687      2204118          147  0.007193656   -148354.79   -144925.27 
   26800    1414.5578   -29.816666      2204118          147  0.007193656   -148201.84   -144853.92 
   26900    1460.9894   -40.141163      2204118          147  0.007193656   -148345.52   -144887.71 
   27000    1386.1282    122.38879      2204118          147  0.007193656   -148369.16   -145088.53 
   27100    1401.8347    132.49208      2204118          147  0.007193656   -148489.43   -145171.62 
   27200    1412.8355   -130.15632      2204118          147  0.007193656   -148427.08   -145083.23 
   27300    1517.5379    84.493171      2204118          147  0.007193656   -148413.64   -144821.99 
   27400    1446.3594   -43.940729      2204118          147  0.007193656   -148212.53   -144789.34 
   27500    1354.2743   -138.58411      2204118          147  0.007193656   -148072.01   -144866.76 
   27600    1403.4185    147.15152      2204118          147  0.007193656   -148319.24   -144997.69 
   27700    1366.1938   -204.37156      2204118          147  0.007193656   -148310.58   -145077.12 
   27800    1378.8487     103.0867      2204118          147  0.007193656   -148321.31    -145057.9 
   27900    1448.1554    18.066793      2204118          147  0.007193656   -148443.75   -145016.31 
   28000    1396.7611   -31.733434      2204118          147  0.007193656   -148263.15   -144957.35 
   28100    1475.5142   -43.008123      2204118          147  0.007193656   -148190.14   -144697.95 
   28200    1438.1846   -42.603007      2204118          147  0.007193656    -147995.8   -144591.96 
   28300    1479.9091    -100.3734      2204118          147  0.007193656   -148297.38   -144794.79 
   28400    1444.5647    124.81339      2204118          147  0.007193656   -148353.35    -144934.4 
   28500     1405.358   -37.383145      2204118          147  0.007193656   -148359.72   -145033.57 
   28600    1385.9304     142.3124      2204118          147  0.007193656   -148428.56   -145148.39 
   28700    1327.6334    31.394719      2204118          147  0.007193656   -148272.81   -145130.62 
   28800    1483.1994   -40.564071      2204118          147  0.007193656   -148413.97   -144903.58 
   28900    1462.5168   -192.39493      2204118          147  0.007193656   -148201.22   -144739.79 
   29000    1466.5535    5.0360474      2204118          147  0.007193656   -148291.84   -144820.86 
   29100    1448.8496   -59.735036      2204118          147  0.007193656   -148366.72   -144937.64 
   29200    1434.5176   -133.52907      2204118          147  0.007193656   -148315.94   -144920.77 
   29300    1403.0326    210.16998      2204118          147  0.007193656   -148353.42   -145032.78 
   29400    1382.7616    41.637951      2204118          147  0.007193656   -148399.45   -145126.78 
   29500    1371.4202    40.204239      2204118          147  0.007193656   -148377.83      -145132 
   29600     1477.245    203.60995      2204118          147  0.007193656   -148406.31   -144910.02 
   29700    1534.9982    17.928438      2204118          147  0.007193656   -148457.99   -144825.01 
   29800    1410.2477   -113.09753      2204118          147  0.007193656   -148242.24   -144904.52 
   29900    1398.8708    155.86776      2204118          147  0.007193656    -148407.4   -145096.61 
   30000    1313.8905    64.546276      2204118          147  0.007193656   -148264.37   -145154.71 
   30100    1415.4891    57.216535      2204118          147  0.007193656   -148458.54   -145108.41 
   30200    1374.3769   -37.537485      2204118          147  0.007193656   -148282.83      -145030 
   30300    1370.6977   -156.73864      2204118          147  0.007193656   -148212.49   -144968.37 
   30400    1416.2446    92.853823      2204118          147  0.007193656   -148247.96   -144896.04 
   30500    1405.4134    56.958632      2204118          147  0.007193656   -148269.37   -144943.09 
   30600    1339.8768    26.478617      2204118          147  0.007193656   -148449.01   -145277.84 
   30700     1379.869    47.220079      2204118          147  0.007193656   -148547.09   -145281.27 
   30800    1427.6088   -119.54108      2204118          147  0.007193656   -148479.85   -145101.03 
   30900    1418.3409    43.029106      2204118          147  0.007193656    -148277.6   -144920.73 
   31000    1466.3598    277.02899      2204118          147  0.007193656   -148385.04   -144914.51 
   31100    1407.3343    47.462288      2204118          147  0.007193656   -148349.83      -145019 
   31200    1350.7607   -24.398966      2204118          147  0.007193656    -148421.6   -145224.67 
   31300    1325.8512     -47.6834      2204118          147  0.007193656   -148455.64   -145317.67 
   31400    1355.4978   -205.00218      2204118          147  0.007193656   -148393.04   -145184.89 
   31500    1434.5505    94.681895      2204118          147  0.007193656   -148446.86   -145051.61 
   31600    1442.5264  -0.59123115      2204118          147  0.007193656   -148359.03   -144944.91 
   31700    1351.2334    56.873785      2204118          147  0.007193656    -148076.7   -144878.65 
   31800    1451.7424    233.03545      2204118          147  0.007193656   -148249.38   -144813.45 
   31900      1369.46   -121.02279      2204118          147  0.007193656   -148266.88    -145025.7 
   32000    1368.3646   -130.20399      2204118          147  0.007193656   -148397.31   -145158.72 
   32100     1299.383     89.22837      2204118          147  0.007193656   -148216.48   -145141.15 
   32200    1426.9859   -62.222754      2204118          147  0.007193656   -148348.84    -144971.5 
   32300    1475.9591    192.71971      2204118          147  0.007193656   -148327.33   -144834.08 
   32400    1378.0606   -41.084833      2204118          147  0.007193656   -148148.73   -144887.19 
   32500    1449.1672    -56.05647      2204118          147  0.007193656   -148395.78   -144965.95 
   32600     1349.851    5.4772776      2204118          147  0.007193656   -148260.92   -145066.14 
   32700    1345.2821    80.830668      2204118          147  0.007193656    -148317.4   -145133.43 
   32800    1393.6065    23.295552      2204118          147  0.007193656   -148347.47   -145049.13 
   32900    1437.7003    49.925309      2204118          147  0.007193656   -148288.93   -144886.24 
   33000    1443.0372    -171.7461      2204118          147  0.007193656   -148181.93    -144766.6 
   33100    1427.8737    7.8608107      2204118          147  0.007193656      -148243   -144863.56 
   33200    1358.6457    195.01965      2204118          147  0.007193656   -148291.05   -145075.46 
   33300    1366.7265    161.88128      2204118          147  0.007193656    -148351.1   -145116.38 
   33400    1307.0275    336.55974      2204118          147  0.007193656   -148168.28   -145074.85 
   33500     1413.494    6.5676855      2204118          147  0.007193656   -148275.67   -144930.26 
   33600    1456.4415   -83.357142      2204118          147  0.007193656   -148178.62   -144731.57 
   33700    1392.1545   -158.93559      2204118          147  0.007193656   -147946.03   -144651.13 
   33800    1502.0722   -286.51349      2204118          147  0.007193656   -148419.85    -144864.8 
   33900    1380.6151    31.632853      2204118          147  0.007193656   -148303.08    -145035.5 
   34000    1450.0502    96.291203      2204118          147  0.007193656   -148498.09   -145066.17 
   34100    1336.6418    49.246863      2204118          147  0.007193656   -148282.96   -145119.44 
   34200     1419.432   -13.368173      2204118          147  0.007193656   -148432.37   -145072.91 
   34300    1407.1418    75.988338      2204118          147  0.007193656   -148203.88    -144873.5 
   34400    1444.6165   -144.52707      2204118          147  0.007193656   -148217.57   -144798.51 
   34500    1496.3229   -55.466683      2204118          147  0.007193656    -148424.9   -144883.46 
   34600    1377.1413    11.512737      2204118          147  0.007193656   -148391.86   -145132.49 
   34700    1408.2234    30.556661      2204118          147  0.007193656   -148438.67   -145105.74 
   34800    1407.6305    67.939778      2204118          147  0.007193656   -148331.91   -145000.39 
   34900    1479.7089     108.4958      2204118          147  0.007193656   -148402.84   -144900.72 
   35000     1356.649   -71.844375      2204118          147  0.007193656   -147966.36   -144755.49 
   35100    1480.1507    18.797287      2204118          147  0.007193656   -148134.12   -144630.96 
   35200    1403.9617   -13.374546      2204118          147  0.007193656   -148171.78   -144848.93 
   35300    1440.2541    57.582564      2204118          147  0.007193656   -148405.94    -144997.2 
   35400    1407.6771   -32.695874      2204118          147  0.007193656   -148397.58   -145065.94 
   35500    1338.8936   -87.822611      2204118          147  0.007193656   -148285.62   -145116.78 
   35600    1412.5566    97.931395      2204118          147  0.007193656   -148411.04   -145067.86 
   35700    1315.8282    167.86361      2204118          147  0.007193656   -148074.22   -144959.97 
   35800    1395.8293    54.979095      2204118          147  0.007193656   -148111.89   -144808.29 
   35900    1394.3861    18.436661      2204118          147  0.007193656   -148127.38    -144827.2 
   36000    1431.3339    11.852145      2204118          147  0.007193656   -148464.97   -145077.34 
   36100    1313.5534   -115.90745      2204118          147  0.007193656   -148273.86   -145164.99 
   36200      1367.34   -8.9940668      2204118          147  0.007193656   -148316.33   -145080.16 
   36300    1473.3175   -142.71528      2204118          147  0.007193656   -148408.91   -144921.92 
   36400    1456.0533    24.451409      2204118          147  0.007193656   -148362.87   -144916.74 
   36500    1473.8075    154.52707      2204118          147  0.007193656   -148519.04   -145030.89 
   36600    1339.6787    149.23675      2204118          147  0.007193656   -148439.78   -145269.08 
   36700    1431.1537    44.009036      2204118          147  0.007193656   -148630.61   -145243.41 
   36800    1330.8754    53.227541      2204118          147  0.007193656   -148252.08   -145102.21 
   36900    1444.5313   -65.761652      2204118          147  0.007193656   -148343.63   -144924.76 
   37000    1363.5994   -99.051312      2204118          147  0.007193656   -148073.14   -144845.83 
   37100    1427.8959   -40.888318      2204118          147  0.007193656   -148205.52   -144826.03 
   37200    1381.1378   0.77915323      2204118          147  0.007193656   -148305.56   -145036.73 
   37300    1387.6363    51.133096      2204118          147  0.007193656   -148483.08   -145198.88 
   37400    1368.6383    32.653651      2204118          147  0.007193656   -148364.11   -145124.87 
   37500    1366.7353   -36.567746      2204118          147  0.007193656   -148182.59   -144947.85 
   37600    1363.0042    56.390726      2204118          147  0.007193656   -148102.82   -144876.91 
   37700    1339.8299   -152.71109      2204118          147  0.007193656   -148111.86    -144940.8 
   37800    1371.7238   -22.721628      2204118          147  0.007193656   -148272.71   -145026.17 
   37900    1342.0793   -15.083466      2204118          147  0.007193656   -148536.47   -145360.09 
   38000    1371.4231   -23.226795      2204118          147  0.007193656   -148586.07   -145340.23 
   38100    1422.4815    17.521699      2204118          147  0.007193656   -148475.77    -145109.1 
   38200    1403.5098   -18.241589      2204118          147  0.007193656   -148291.33   -144969.55 
   38300    1503.5987   -124.04442      2204118          147  0.007193656   -148456.79   -144898.12 
   38400    1451.3934    120.53818      2204118          147  0.007193656    -148373.8    -144938.7 
   38500    1344.4053    -135.1396      2204118          147  0.007193656   -148350.23   -145168.34 
   38600    1316.1225    65.499958      2204118          147  0.007193656   -148346.18   -145231.23 
   38700    1385.9721   -104.24675      2204118          147  0.007193656    -148388.7   -145108.43 
   38800    1443.3299    89.729945      2204118          147  0.007193656   -148417.55   -145001.53 
   38900    1458.2447    55.623969      2204118          147  0.007193656    -148450.3   -144998.98 
   39000    1438.0108     214.3703      2204118          147  0.007193656      -148396   -144992.56 
   39100    1452.5538    19.698569      2204118          147  0.007193656   -148423.57   -144985.72 
   39200    1368.2456     -152.799      2204118          147  0.007193656   -148284.58   -145046.26 
   39300    1381.5067   -46.012988      2204118          147  0.007193656   -148369.42   -145099.72 
   39400    1430.6076   -184.20883      2204118          147  0.007193656   -148511.34   -145125.43 
   39500     1370.497   -16.721394      2204118          147  0.007193656   -148237.33   -144993.68 
   39600    1383.1268    139.16274      2204118          147  0.007193656   -148142.85   -144869.32 
   39700    1432.2532    -142.6096      2204118          147  0.007193656    -148288.4    -144898.6 
   39800    1375.6963    66.113375      2204118          147  0.007193656   -148386.37   -145130.42 
   39900     1408.957   -29.195507      2204118          147  0.007193656   -148559.52   -145224.85 
   40000    1399.0129    -164.3925      2204118          147  0.007193656    -148404.2   -145093.07 
   40100    1528.2912    93.591857      2204118          147  0.007193656   -148566.62   -144949.52 
   40200    1422.1239   -77.950916      2204118          147  0.007193656   -148296.74   -144930.91 
   40300    1409.2678   -77.316194      2204118          147  0.007193656   -148280.83   -144945.43 
   40400    1398.7234     68.14126      2204118          147  0.007193656   -148341.92   -145031.47 
   40500    1352.2096    -55.53606      2204118          147  0.007193656    -148344.4   -145144.04 
   40600    1375.2349    36.089659      2204118          147  0.007193656   -148560.57   -145305.71 
   40700    1379.2465     32.80276      2204118          147  0.007193656   -148471.59   -145207.24 
   40800    1448.0272    34.199534      2204118          147  0.007193656   -148429.13   -145001.99 
   40900    1416.3887   -140.96505      2204118          147  0.007193656   -148324.18   -144971.92 
   41000    1360.8212   -168.16724      2204118          147  0.007193656   -148189.76   -144969.02 
   41100    1364.2789   -268.51949      2204118          147  0.007193656   -148168.36   -144939.44 
   41200    1498.1463    11.867042      2204118          147  0.007193656   -148367.35   -144821.59 
   41300    1357.6647    146.63563      2204118          147  0.007193656   -148111.26   -144897.98 
   41400    1458.4488    180.86104      2204118          147  0.007193656   -148505.94   -145054.14 
   41500    1393.5173    46.924377      2204118          147  0.007193656   -148428.83    -145130.7 
   41600    1390.5397   -81.916983      2204118          147  0.007193656   -148402.15   -145111.07 
   41700    1398.5477   -267.16344      2204118          147  0.007193656   -148223.29   -144913.26 
   41800    1433.7635    8.1794589      2204118          147  0.007193656      -148154   -144760.62 
   41900    1403.0282    210.15664      2204118          147  0.007193656   -148204.65   -144884.02 
   42000    1430.0343    130.66979      2204118          147  0.007193656   -148424.18   -145039.63 
   42100    1423.6073   -107.42962      2204118          147  0.007193656   -148477.62   -145108.28 
   42200    1367.2087   -145.25848      2204118          147  0.007193656   -148329.34   -145093.48 
   42300    1384.3629     -83.8941      2204118          147  0.007193656   -148265.52   -144989.06 
   42400    1464.0787   -47.799839      2204118          147  0.007193656   -148228.04   -144762.91 
   42500     1490.346    60.840232      2204118          147  0.007193656   -148096.29      -144569 
   42600    1466.6166   -10.846738      2204118          147  0.007193656   -148193.18   -144722.05 
   42700    1381.4927   -39.524451      2204118          147  0.007193656   -148161.02   -144891.35 
   42800    1425.9828    122.41164      2204118          147  0.007193656   -148392.67   -145017.71 
   42900    1392.3281     81.94043      2204118          147  0.007193656   -148411.87   -145116.56 
   43000    1310.5187     10.24658      2204118          147  0.007193656   -148273.36   -145171.68 
   43100     1443.671   -28.819951      2204118          147  0.007193656   -148412.95   -144996.12 
   43200    1359.0558    32.529057      2204118          147  0.007193656   -148034.75   -144818.18 
   43300    1465.1924   -28.586946      2204118          147  0.007193656   -148311.94   -144844.18 
   43400    1346.1762   -92.668922      2204118          147  0.007193656   -148121.15   -144935.07 
   43500    1416.6125    118.94826      2204118          147  0.007193656   -148413.38   -145060.59 
   43600    1317.3039    67.683116      2204118          147  0.007193656   -148424.76   -145307.01 
   43700    1329.1017    96.850879      2204118          147  0.007193656   -148586.01   -145440.34 
   43800      1411.81    76.504688      2204118          147  0.007193656   -148648.15   -145306.73 
   43900     1349.606   -97.899206      2204118          147  0.007193656    -148324.9    -145130.7 
   44000    1410.6613   -27.415376      2204118          147  0.007193656   -148298.04   -144959.33 
   44100    1456.3539   -120.00813      2204118          147  0.007193656   -148326.83   -144879.99 
   44200    1387.5562    25.250311      2204118          147  0.007193656   -148228.27   -144944.25 
   44300     1345.051    102.98964      2204118          147  0.007193656   -148355.01   -145171.59 
   44400    1369.7325    59.030785      2204118          147  0.007193656   -148484.55   -145242.72 
   44500    1396.2696   -92.929644      2204118          147  0.007193656   -148446.32   -145141.68 
   44600    1467.9173   -174.44332      2204118          147  0.007193656   -148469.71   -144995.49 
   44700    1434.4047     3.501125      2204118          147  0.007193656   -148343.33   -144948.44 
   44800    1431.2645    122.25598      2204118          147  0.007193656   -148344.11   -144956.65 
   44900    1351.4339    161.08093      2204118          147  0.007193656   -148225.94   -145027.41 
   45000    1411.5567   -153.71047      2204118          147  0.007193656   -148622.83   -145282.01 
   45100    1342.8338   -80.477488      2204118          147  0.007193656   -148546.36   -145368.19 
   45200    1326.7875    99.307159      2204118          147  0.007193656    -148383.8   -145243.61 
   45300    1406.5127    204.27855      2204118          147  0.007193656   -148412.93   -145084.05 
   45400    1465.7884   -191.37916      2204118          147  0.007193656    -148427.6   -144958.43 
   45500    1462.8487   -61.996956      2204118          147  0.007193656   -148378.73   -144916.52 
   45600    1387.7286   -64.429607      2204118          147  0.007193656   -148286.63   -145002.21 
   45700    1395.3811   -136.63367      2204118          147  0.007193656   -148545.43   -145242.89 
   45800    1277.2068    42.250444      2204118          147  0.007193656   -148293.62   -145270.78 
   45900    1396.5657     66.27287      2204118          147  0.007193656   -148462.06   -145156.72 
   46000    1379.0213    5.5452923      2204118          147  0.007193656    -148331.8   -145067.98 
   46100    1429.5284   -43.554741      2204118          147  0.007193656   -148384.57   -145001.22 
   46200    1428.8611   -55.266344      2204118          147  0.007193656   -148338.26   -144956.48 
   46300    1340.8488   -29.311666      2204118          147  0.007193656   -148289.33   -145115.85 
   46400     1345.219    218.92945      2204118          147  0.007193656   -148505.27   -145321.45 
   46500    1378.7611   -196.69175      2204118          147  0.007193656   -148497.19   -145233.99 
   46600    1391.3493   -11.796036      2204118          147  0.007193656   -148338.99   -145045.99 
   46700    1491.1833   -5.3856641      2204118          147  0.007193656   -148512.19   -144982.92 
   46800    1385.4073    118.38829      2204118          147  0.007193656   -148223.15   -144944.22 
   46900    1428.6262    123.76851      2204118          147  0.007193656   -148366.68   -144985.46 
   47000    1408.0175    53.397799      2204118          147  0.007193656   -148507.57   -145175.13 
   47100     1345.774   -70.122042      2204118          147  0.007193656   -148566.39   -145381.26 
   47200    1361.2286    28.871431      2204118          147  0.007193656   -148458.51    -145236.8 
   47300     1377.144     -92.2482      2204118          147  0.007193656    -148315.4   -145056.03 
   47400    1368.0177    38.578596      2204118          147  0.007193656   -148238.95   -145001.17 
   47500    1451.8133    124.52508      2204118          147  0.007193656   -148361.54   -144925.45 
   47600    1451.3391    154.87922      2204118          147  0.007193656   -148280.94   -144845.96 
   47700     1432.601    129.62252      2204118          147  0.007193656   -148272.16   -144881.53 
   47800    1432.9202    -56.30059      2204118          147  0.007193656   -148454.33   -145062.95 
   47900    1361.2152    -132.3775      2204118          147  0.007193656   -148392.78    -145171.1 
   48000    1339.3446   -73.161285      2204118          147  0.007193656   -148279.67   -145109.76 
   48100    1435.8961    51.214528      2204118          147  0.007193656   -148279.92   -144881.49 
   48200    1405.1054   -110.01744      2204118          147  0.007193656   -148101.86   -144776.31 
   48300    1463.9176   -2.4527694      2204118          147  0.007193656   -148327.68   -144862.94 
   48400    1351.8593   -40.505939      2204118          147  0.007193656   -148173.54      -144974 
   48500    1352.3603    94.523951      2204118          147  0.007193656   -148275.51   -145074.79 
   48600    1342.4034     204.6949      2204118          147  0.007193656   -148312.67   -145135.52 
   48700    1471.6983    137.45549      2204118          147  0.007193656   -148607.96    -145124.8 
   48800    1399.2994   -24.260619      2204118          147  0.007193656   -148267.22   -144955.41 
   48900    1445.3129    10.727357      2204118          147  0.007193656   -148257.68   -144836.97 
   49000    1411.6512   -167.53566      2204118          147  0.007193656   -148238.08   -144897.04 
   49100    1342.1085   -23.520265      2204118          147  0.007193656   -148264.18   -145087.72 
   49200    1380.9303    72.151797      2204118          147  0.007193656   -148433.06   -145164.73 
   49300    1400.2621    174.33069      2204118          147  0.007193656   -148455.14   -145141.05 
   49400    1335.5872    8.6130733      2204118          147  0.007193656   -148275.41   -145114.39 
   49500    1389.4182   -133.09969      2204118          147  0.007193656   -148201.43   -144913.01 
   49600    1476.9322   -6.0073891      2204118          147  0.007193656   -148186.74   -144691.19 
   49700    1459.0379    8.1333587      2204118          147  0.007193656   -148228.74   -144775.55 
   49800    1423.6318    68.794837      2204118          147  0.007193656   -148368.78   -144999.38 
   49900    1405.3243    111.55679      2204118          147  0.007193656   -148392.42   -145066.35 
   50000    1420.9277    120.21653      2204118          147  0.007193656   -148415.69   -145052.69 
   50100     1414.126    43.486553      2204118          147  0.007193656   -148448.26   -145101.36 
   50200    1340.1654    -167.3153      2204118          147  0.007193656   -148401.39   -145229.53 
   50300    1387.2505    20.046285      2204118          147  0.007193656   -148534.38   -145251.09 
   50400    1427.3166    152.98618      2204118          147  0.007193656   -148428.02    -145049.9 
   50500    1439.4444   -10.832773      2204118          147  0.007193656   -148294.36   -144887.53 
   50600     1426.644   -75.413927      2204118          147  0.007193656   -148289.76   -144913.23 
   50700    1346.2488   -78.392434      2204118          147  0.007193656   -148245.67   -145059.42 
   50800    1395.3004   -13.040742      2204118          147  0.007193656   -148404.44   -145102.09 
   50900    1395.4291   -30.985498      2204118          147  0.007193656   -148417.37   -145114.72 
   51000    1361.6371   -15.791343      2204118          147  0.007193656   -148289.92   -145067.25 
   51100    1411.5137    114.31097      2204118          147  0.007193656   -148401.48   -145060.77 
   51200    1401.2739   -68.071719      2204118          147  0.007193656   -148470.05   -145153.56 
   51300    1309.1889    -128.6302      2204118          147  0.007193656   -148330.88   -145232.34 
   51400     1327.444   -107.33639      2204118          147  0.007193656   -148392.21   -145250.46 
   51500    1380.6019    74.226251      2204118          147  0.007193656   -148320.07   -145052.51 
   51600    1522.0079    27.087852      2204118          147  0.007193656    -148520.5   -144918.27 
   51700    1444.9906    59.033329      2204118          147  0.007193656   -148353.72   -144933.77 
   51800    1400.3434    111.90867      2204118          147  0.007193656   -148441.51   -145127.23 
   51900    1331.8982    88.142104      2204118          147  0.007193656    -148353.8   -145201.51 
   52000    1384.8028   -103.25001      2204118          147  0.007193656      -148424    -145146.5 
   52100    1377.2876   -63.042802      2204118          147  0.007193656   -148359.78   -145100.07 
   52200    1399.4547   -19.310206      2204118          147  0.007193656   -148326.97    -145014.8 
   52300    1410.9931    41.164918      2204118          147  0.007193656   -148188.38   -144848.89 
   52400    1443.0559    60.269458      2204118          147  0.007193656   -148257.89   -144842.52 
   52500    1340.0892    46.606437      2204118          147  0.007193656   -148268.34   -145096.67 
   52600     1389.299   -10.883447      2204118          147  0.007193656   -148400.94    -145112.8 
   52700    1423.8751    61.423224      2204118          147  0.007193656    -148411.4   -145041.42 
   52800    1353.4052   -89.743417      2204118          147  0.007193656   -148158.71   -144955.52 
   52900    1374.1395    3.1746594      2204118          147  0.007193656   -148181.65   -144929.39 
   53000    1405.2498   -17.490314      2204118          147  0.007193656   -148344.59   -145018.69 
   53100    1351.1855   -24.043072      2204118          147  0.007193656   -148356.87   -145158.93 
   53200    1373.6196     89.36799      2204118          147  0.007193656   -148475.19   -145224.16 
   53300    1435.8078    99.101435      2204118          147  0.007193656    -148478.7   -145080.48 
   53400    1435.4593   -60.840719      2204118          147  0.007193656   -148291.23   -144893.84 
   53500    1353.9846    41.306927      2204118          147  0.007193656    -148109.9   -144905.34 
   53600    1449.7237   -62.347961      2204118          147  0.007193656   -148410.03   -144978.88 
   53700    1409.8316    115.29304      2204118          147  0.007193656    -148371.2   -145034.46 
   53800    1357.6738    20.030384      2204118          147  0.007193656   -148319.09    -145105.8 
   53900    1311.7308    184.82326      2204118          147  0.007193656   -148229.07   -145124.52 
   54000     1382.651   -3.4039346      2204118          147  0.007193656    -148404.7   -145132.29 
   54100    1414.2435   -179.87023      2204118          147  0.007193656    -148396.8   -145049.62 
   54200    1417.1351    68.604671      2204118          147  0.007193656   -148218.66   -144864.64 
   54300    1448.9624    101.73533      2204118          147  0.007193656   -148266.25    -144836.9 
   54400    1397.2978     111.4824      2204118          147  0.007193656   -148368.23   -145061.16 
   54500    1402.1378    89.976081      2204118          147  0.007193656    -148491.9   -145173.37 
   54600    1374.2916    -130.7708      2204118          147  0.007193656   -148338.98   -145086.36 
   54700    1447.8656    21.360323      2204118          147  0.007193656   -148385.67   -144958.92 
   54800    1442.7536    55.465012      2204118          147  0.007193656   -148285.86    -144871.2 
   54900    1459.3003   -8.0725047      2204118          147  0.007193656   -148376.07   -144922.25 
   55000    1393.3768    87.942785      2204118          147  0.007193656   -148446.24   -145148.44 
   55100     1376.397    65.517696      2204118          147  0.007193656    -148461.7   -145204.09 
   55200    1358.6466   -3.2161172      2204118          147  0.007193656   -148344.67   -145129.07 
   55300     1406.786    64.054041      2204118          147  0.007193656   -148264.73    -144935.2 
   55400    1494.6401   -70.920065      2204118          147  0.007193656   -148343.05   -144805.59 
   55500    1348.1634    189.03779      2204118          147  0.007193656   -148105.04   -144914.25 
   55600    1478.6929    1.2843052      2204118          147  0.007193656    -148501.1   -145001.38 
   55700     1355.601   -59.226992      2204118          147  0.007193656   -148296.89    -145088.5 
   55800    1442.9235   -7.2559308      2204118          147  0.007193656   -148530.54   -145115.48 
   55900    1376.7613   -24.772757      2204118          147  0.007193656   -148379.84   -145121.37 
   56000    1400.7529   -37.848219      2204118          147  0.007193656   -148415.74   -145100.49 
   56100    1411.6421    159.08409      2204118          147  0.007193656   -148367.46   -145026.44 
   56200    1412.6578   -153.37375      2204118          147  0.007193656   -148282.56   -144939.13 
   56300    1379.3587   -42.921487      2204118          147  0.007193656   -148280.76   -145016.14 
   56400    1448.5928   -9.8896442      2204118          147  0.007193656    -148602.1   -145173.62 
   56500    1364.6262   -51.330879      2204118          147  0.007193656   -148509.82   -145280.07 
   56600    1452.6505    91.596608      2204118          147  0.007193656   -148642.92   -145204.84 
   56700    1461.2334   -1.5643742      2204118          147  0.007193656   -148385.37   -144926.98 
   56800    1365.6517    63.193956      2204118          147  0.007193656   -148193.09   -144960.91 
   56900    1450.7455     29.67877      2204118          147  0.007193656   -148494.51   -145060.94 
   57000    1347.3426   -117.61315      2204118          147  0.007193656   -148383.71   -145194.87 
   57100    1475.5673   -109.06335      2204118          147  0.007193656   -148690.42    -145198.1 
   57200     1393.483    173.51681      2204118          147  0.007193656   -148247.75   -144949.71 
   57300    1503.7625    230.58669      2204118          147  0.007193656   -148405.31   -144846.26 
   57400    1367.1783    154.66015      2204118          147  0.007193656   -148231.82   -144996.04 
   57500    1413.4841   -136.80696      2204118          147  0.007193656   -148443.45   -145098.06 
   57600    1330.2125   -31.612663      2204118          147  0.007193656   -148278.23   -145129.93 
   57700    1500.9659   -135.76583      2204118          147  0.007193656   -148564.68   -145012.25 
   57800    1373.1889    202.72181      2204118          147  0.007193656   -148034.42   -144784.41 
   57900     1519.676    98.263585      2204118          147  0.007193656   -148226.91    -144630.2 
   58000    1507.8778    21.644931      2204118          147  0.007193656   -148379.76   -144810.97 
   58100    1348.4054    -59.56855      2204118          147  0.007193656   -148105.61   -144914.25 
   58200    1426.1881   -82.352384      2204118          147  0.007193656   -148370.21   -144994.76 
   58300    1335.2748    -152.8595      2204118          147  0.007193656   -148279.06   -145118.78 
   58400    1380.9279    187.67039      2204118          147  0.007193656   -148408.08   -145139.75 
   58500    1442.7546    96.924213      2204118          147  0.007193656   -148490.31   -145075.65 
   58600    1436.2232   -251.18833      2204118          147  0.007193656   -148363.12   -144963.92 
   58700    1370.7219   -160.76982      2204118          147  0.007193656   -148133.12   -144888.95 
   58800     1433.506   -139.16124      2204118          147  0.007193656   -148330.32   -144937.55 
   58900    1373.9195   -85.153795      2204118          147  0.007193656   -148377.61   -145125.87 
   59000    1403.6835    127.05793      2204118          147  0.007193656    -148561.9   -145239.71 
   59100    1417.0352    104.28002      2204118          147  0.007193656   -148519.88    -145166.1 
   59200    1452.8491   -28.436435      2204118          147  0.007193656   -148493.06   -145054.51 
   59300    1392.6891    8.1227906      2204118          147  0.007193656    -148312.2   -145016.03 
   59400    1425.6886    40.643697      2204118          147  0.007193656   -148397.99   -145023.72 
   59500    1378.5383     15.89437      2204118          147  0.007193656   -148319.22   -145056.55 
   59600    1329.0965   -6.7021845      2204118          147  0.007193656   -148280.96    -145135.3 
   59700    1352.0359    88.511392      2204118          147  0.007193656   -148464.62   -145264.67 
   59800    1332.1023     22.02132      2204118          147  0.007193656   -148425.93   -145273.16 
   59900     1459.591   -120.39127      2204118          147  0.007193656    -148510.9   -145056.39 
   60000    1498.7467   -44.200368      2204118          147  0.007193656   -148475.66   -144928.48 
   60100    1472.5096   -37.220943      2204118          147  0.007193656   -148425.74   -144940.66 
   60200    1401.3258    38.327385      2204118          147  0.007193656   -148409.98   -145093.37 
   60300    1336.5896   -8.1787002      2204118          147  0.007193656   -148414.68   -145251.29 
   60400    1465.1086   -3.7357646      2204118          147  0.007193656   -148824.35   -145356.78 
   60500    1298.0831   -98.766292      2204118          147  0.007193656    -148543.7   -145471.45 
   60600    1416.6954   -47.903529      2204118          147  0.007193656   -148650.02   -145297.03 
   60700    1432.3965    21.775678      2204118          147  0.007193656    -148464.2   -145074.06 
   60800     1435.446   -79.119393      2204118          147  0.007193656      -148358   -144960.64 
   60900    1437.8713   -11.354101      2204118          147  0.007193656    -148311.6    -144908.5 
   61000    1394.0716    28.730637      2204118          147  0.007193656   -148222.71   -144923.28 
   61100    1403.0464    83.660231      2204118          147  0.007193656   -148434.85   -145114.17 
   61200    1354.5761    29.564369      2204118          147  0.007193656   -148414.77   -145208.81 
   61300    1367.0953   -121.51528      2204118          147  0.007193656   -148388.56   -145152.97 
   61400    1440.1468   -1.8533346      2204118          147  0.007193656   -148270.92   -144862.44 
   61500    1398.4552      91.4121      2204118          147  0.007193656   -148117.19   -144807.38 
   61600    1425.8199   -28.311243      2204118          147  0.007193656   -148303.22   -144928.64 
   61700    1394.5594    165.53125      2204118          147  0.007193656   -148345.31   -145044.72 
   61800     1455.054   -38.446149      2204118          147  0.007193656   -148560.48   -145116.71 
   61900     1414.543   -53.363803      2204118          147  0.007193656    -148446.7   -145098.81 
   62000    1369.9216    17.463699      2204118          147  0.007193656   -148310.38    -145068.1 
   62100    1405.8727    210.70605      2204118          147  0.007193656   -148168.96   -144841.59 
   62200    1408.0521    151.93344      2204118          147  0.007193656   -148092.54   -144760.01 
   62300    1432.0131     28.19112      2204118          147  0.007193656   -148360.73    -144971.5 
   62400    1405.5233   -83.398476      2204118          147  0.007193656   -148427.69   -145101.15 
   62500    1358.2307   -231.00666      2204118          147  0.007193656   -148311.08   -145096.47 
   62600    1367.1089    131.87807      2204118          147  0.007193656   -148204.13   -144968.51 
   62700    1501.1148    126.36287      2204118          147  0.007193656   -148336.64   -144783.86 
   62800    1468.4875    101.79336      2204118          147  0.007193656   -148287.83   -144812.27 
   62900    1400.9801    179.93591      2204118          147  0.007193656   -148430.82   -145115.04 
   63000    1440.3125   -78.166523      2204118          147  0.007193656   -148581.72   -145172.84 
   63100    1336.8596   -80.199165      2204118          147  0.007193656   -148295.12   -145131.09 
   63200    1391.0635   -31.167639      2204118          147  0.007193656    -148235.1   -144942.78 
   63300    1424.9365    130.12886      2204118          147  0.007193656   -148238.95   -144866.46 
   63400    1405.9683    292.28474      2204118          147  0.007193656   -148296.62   -144969.03 
   63500     1358.235    -83.75081      2204118          147  0.007193656   -148407.88   -145193.26 
   63600    1341.3669    -90.06322      2204118          147  0.007193656   -148383.16   -145208.46 
   63700    1332.6246   -22.948266      2204118          147  0.007193656   -148256.65   -145102.64 
   63800    1365.9914   -34.672368      2204118          147  0.007193656   -148189.65   -144956.67 
   63900    1431.0731     173.5957      2204118          147  0.007193656   -148267.67   -144880.66 
   64000    1379.7886    156.76013      2204118          147  0.007193656   -148187.26   -144921.63 
   64100    1372.8494    53.710645      2204118          147  0.007193656   -148427.76   -145178.55 
   64200    1255.0787    -94.47325      2204118          147  0.007193656   -148201.62   -145231.15 
   64300    1512.3062   -97.135872      2204118          147  0.007193656   -148664.61   -145085.34 
   64400    1446.5293   -15.172835      2204118          147  0.007193656   -148394.23   -144970.63 
   64500    1433.1826   -172.76649      2204118          147  0.007193656   -148314.55   -144922.54 
   64600    1435.3483    56.794797      2204118          147  0.007193656   -148318.96   -144921.83 
   64700    1454.6616   -27.778232      2204118          147  0.007193656   -148444.24    -145001.4 
   64800    1467.8453   -191.47495      2204118          147  0.007193656    -148485.4   -145011.36 
   64900    1358.8693    42.942522      2204118          147  0.007193656   -148221.17   -145005.05 
   65000    1379.8044    29.886086      2204118          147  0.007193656   -148284.51   -145018.84 
   65100    1384.1162    151.05161      2204118          147  0.007193656    -148285.1   -145009.22 
   65200    1387.6667    139.61056      2204118          147  0.007193656   -148194.15   -144909.87 
   65300    1466.5996    -32.37806      2204118          147  0.007193656   -148295.14   -144824.05 
   65400    1434.8684   -153.02706      2204118          147  0.007193656   -148299.35   -144903.36 
   65500    1437.7754    26.199738      2204118          147  0.007193656   -148522.38    -145119.5 
   65600    1339.7106    17.911418      2204118          147  0.007193656   -148371.25   -145200.47 
   65700    1371.2375    140.30918      2204118          147  0.007193656   -148352.18   -145106.79 
   65800    1440.3746    85.190888      2204118          147  0.007193656   -148386.32   -144977.29 
   65900    1348.0008   -212.03165      2204118          147  0.007193656   -148129.22   -144938.82 
   66000    1493.0748    32.024813      2204118          147  0.007193656   -148472.62   -144938.86 
   66100    1401.9261    31.457669      2204118          147  0.007193656   -148306.71   -144988.68 
   66200    1396.3875     7.945195      2204118          147  0.007193656   -148334.32   -145029.41 
   66300    1379.1895    70.118176      2204118          147  0.007193656   -148375.63   -145111.42 
   66400    1350.8404   -34.701971      2204118          147  0.007193656   -148503.16   -145306.04 
   66500    1307.1301   -90.387251      2204118          147  0.007193656   -148367.27    -145273.6 
   66600    1412.4259   -203.61368      2204118          147  0.007193656   -148387.33   -145044.45 
   66700     1426.989   -34.806231      2204118          147  0.007193656   -148334.38   -144957.03 
   66800    1462.5906    56.310028      2204118          147  0.007193656   -148435.53   -144973.92 
   66900     1393.267    132.77403      2204118          147  0.007193656   -148427.22   -145129.69 
   67000    1357.0002    34.295175      2204118          147  0.007193656   -148414.02   -145202.32 
   67100    1299.5566     23.66072      2204118          147  0.007193656   -148153.81   -145078.06 
   67200     1409.126   -120.55216      2204118          147  0.007193656   -148179.93   -144844.86 
   67300    1437.6344   -134.74605      2204118          147  0.007193656   -148252.72   -144850.18 
   67400    1382.3624    170.81412      2204118          147  0.007193656   -148293.69   -145021.97 
   67500    1359.4261    47.154396      2204118          147  0.007193656   -148373.28   -145155.84 
   67600     1361.914    16.150293      2204118          147  0.007193656    -148348.5   -145125.17 
   67700    1418.7331   -10.675176      2204118          147  0.007193656   -148378.02   -145020.22 
   67800    1406.1218   -76.490743      2204118          147  0.007193656   -148186.91   -144858.95 
   67900     1469.292    156.39959      2204118          147  0.007193656   -148096.32   -144618.86 
   68000    1463.3239   -110.28463      2204118          147  0.007193656   -148172.72   -144709.38 
   68100    1467.9007    103.23161      2204118          147  0.007193656   -148370.49   -144896.32 
   68200    1439.9986   -141.53644      2204118          147  0.007193656   -148433.25   -145025.12 
   68300    1431.0228   -124.74963      2204118          147  0.007193656   -148470.53   -145083.64 
   68400     1413.764    132.69397      2204118          147  0.007193656   -148436.82   -145090.77 
   68500    1384.8813    44.831732      2204118          147  0.007193656   -148375.19    -145097.5 
   68600    1395.9234    36.839651      2204118          147  0.007193656   -148328.52    -145024.7 
   68700    1377.2625    122.74916      2204118          147  0.007193656   -148183.02   -144923.37 
   68800    1412.1929   -98.166826      2204118          147  0.007193656   -148215.55   -144873.22 
   68900    1448.1788    24.038065      2204118          147  0.007193656   -148371.66   -144944.17 
   69000    1376.2529   -67.451141      2204118          147  0.007193656   -148413.59   -145156.33 
   69100    1326.7138    2.5807948      2204118          147  0.007193656   -148322.53   -145182.52 
   69200     1395.033    23.015331      2204118          147  0.007193656   -148376.32   -145074.61 
   69300    1439.0351   -87.558704      2204118          147  0.007193656   -148311.57   -144905.71 
   69400    1505.8245    69.041822      2204118          147  0.007193656   -148278.83    -144714.9 
   69500    1510.7168    66.591424      2204118          147  0.007193656   -148400.72   -144825.21 
   69600    1391.6131    30.621827      2204118          147  0.007193656    -148285.8   -144992.18 
   69700    1437.4437    266.92327      2204118          147  0.007193656   -148469.19    -145067.1 
   69800    1365.8864    1.5129062      2204118          147  0.007193656   -148306.75   -145074.02 
   69900    1407.1996    63.564316      2204118          147  0.007193656   -148315.08   -144984.58 
   70000    1456.5931    41.232483      2204118          147  0.007193656   -148205.53   -144758.12 
   70100    1479.6523    61.107173      2204118          147  0.007193656   -148295.19    -144793.2 
   70200    1391.4122    14.273538      2204118          147  0.007193656   -148308.85    -145015.7 
   70300    1380.0329    125.90372      2204118          147  0.007193656   -148318.23   -145052.02 
   70400    1453.6709   -36.744348      2204118          147  0.007193656   -148506.75   -145066.26 
   70500     1355.469   -68.906158      2204118          147  0.007193656   -148256.46   -145048.39 
   70600    1426.8227   -71.522284      2204118          147  0.007193656   -148339.06    -144962.1 
   70700    1438.5155    35.629441      2204118          147  0.007193656   -148293.34   -144888.72 
   70800    1479.9989    66.268751      2204118          147  0.007193656   -148377.72   -144874.91 
   70900    1458.0805   -18.989176      2204118          147  0.007193656   -148489.65   -145038.72 
   71000    1311.9505   -125.89978      2204118          147  0.007193656   -148277.07   -145171.99 
   71100    1415.0016    47.855654      2204118          147  0.007193656   -148476.74   -145127.76 
   71200    1371.9711    80.109601      2204118          147  0.007193656   -148269.42   -145022.29 
   71300    1439.0096   -63.345679      2204118          147  0.007193656   -148154.56   -144748.77 
   71400     1452.714    150.59073      2204118          147  0.007193656   -148125.51   -144687.28 
   71500    1397.3914   -142.17221      2204118          147  0.007193656    -148112.7   -144805.41 
   71600    1364.6605    1.9655797      2204118          147  0.007193656   -148181.91   -144952.08 
   71700    1346.6841    21.411174      2204118          147  0.007193656   -148249.49   -145062.21 
   71800    1448.1489    162.52364      2204118          147  0.007193656   -148475.47   -145048.04 
   71900    1451.8366   -64.020278      2204118          147  0.007193656   -148320.45    -144884.3 
   72000    1491.7658    -89.44805      2204118          147  0.007193656   -148230.52   -144699.86 
   72100    1447.1464   -123.50921      2204118          147  0.007193656   -148229.09   -144804.03 
   72200    1394.6143   -47.313241      2204118          147  0.007193656   -148317.85   -145017.13 
   72300    1316.7487   -38.518865      2204118          147  0.007193656   -148168.85   -145052.42 
   72400    1461.6072     84.79814      2204118          147  0.007193656   -148493.99   -145034.71 
   72500    1416.2118    185.79744      2204118          147  0.007193656    -148369.6   -145017.76 
   72600    1363.8693    -106.6574      2204118          147  0.007193656   -148150.22   -144922.27 
   72700    1452.4879   -103.62411      2204118          147  0.007193656   -148248.83   -144811.13 
   72800     1497.737   -75.367966      2204118          147  0.007193656   -148328.82   -144784.03 
   72900    1418.1228     89.38114      2204118          147  0.007193656   -148360.37   -145004.01 
   73000    1443.3089    57.826544      2204118          147  0.007193656   -148512.13   -145096.16 
   73100    1441.2101    92.297737      2204118          147  0.007193656   -148502.02   -145091.02 
   73200     1374.441   -4.0924189      2204118          147  0.007193656   -148280.65   -145027.67 
   73300    1454.1339   -6.9818891      2204118          147  0.007193656   -148222.31   -144780.72 
   73400    1350.9342   -16.532532      2204118          147  0.007193656   -147977.51   -144780.17 
   73500    1483.2174    55.556993      2204118          147  0.007193656   -148451.33   -144940.91 
   73600    1385.9403    82.445302      2204118          147  0.007193656    -148355.2      -145075 
   73700    1387.0351    109.03379      2204118          147  0.007193656   -148317.02   -145034.23 
   73800    1351.1729    35.860129      2204118          147  0.007193656   -148123.87   -144925.96 
   73900    1408.1978    18.123811      2204118          147  0.007193656   -148215.67    -144882.8 
   74000    1378.1017    -25.82638      2204118          147  0.007193656   -148178.05   -144916.41 
   74100    1445.6977    -34.78013      2204118          147  0.007193656   -148442.71   -145021.08 
   74200    1320.4678    80.055733      2204118          147  0.007193656    -148277.8   -145152.57 
   74300    1345.0615     27.46744      2204118          147  0.007193656   -148317.08   -145133.64 
   74400    1308.5961      130.306      2204118          147  0.007193656   -148046.75   -144949.61 
   74500    1458.1872   -128.00667      2204118          147  0.007193656   -148211.46   -144760.27 
   74600     1370.335   -162.35352      2204118          147  0.007193656    -148065.7   -144822.44 
   74700    1387.6448   -3.2875037      2204118          147  0.007193656   -148228.64   -144944.42 
   74800    1375.4426   -45.456771      2204118          147  0.007193656   -148268.61   -145013.26 
   74900    1432.3316    100.18033      2204118          147  0.007193656   -148448.61   -145058.62 
   75000    1421.3115    18.327037      2204118          147  0.007193656   -148347.22   -144983.31 
[...]
  381700     1451.161    -15.85093      2204118          147  0.007193656   -148149.12   -144714.57 
  381800    1469.1893   -9.9159761      2204118          147  0.007193656   -148163.58   -144686.36 
  381900    1425.1814   -60.160362      2204118          147  0.007193656   -148272.04   -144898.97 
  382000    1361.8984   -25.133436      2204118          147  0.007193656   -148206.88   -144983.58 
  382100    1351.5935    197.93769      2204118          147  0.007193656   -148233.43   -145034.53 
  382200    1431.8838    126.21741      2204118          147  0.007193656   -148536.63    -145147.7 
  382300     1349.733    92.366007      2204118          147  0.007193656   -148464.79   -145270.29 
  382400    1314.3402   -143.08142      2204118          147  0.007193656   -148378.68   -145267.95 
  382500    1388.4606   -198.96278      2204118          147  0.007193656   -148281.95   -144995.79 
  382600    1368.4903   -87.413127      2204118          147  0.007193656    -148079.9   -144841.01 
  382700     1415.094    2.2518029      2204118          147  0.007193656   -148195.27   -144846.07 
  382800    1380.7763    49.022233      2204118          147  0.007193656   -148317.66   -145049.69 
  382900     1371.447    98.199781      2204118          147  0.007193656   -148363.93   -145118.04 
  383000    1397.8768   -70.986832      2204118          147  0.007193656   -148377.36   -145068.92 
  383100    1414.3363    -283.2907      2204118          147  0.007193656   -148252.91   -144905.51 
  383200    1458.7111   -4.1560234      2204118          147  0.007193656   -148111.21   -144658.78 
  383300    1454.8831   -15.648323      2204118          147  0.007193656   -148082.04   -144638.68 
  383400    1419.7249   -4.1529361      2204118          147  0.007193656   -148171.81   -144811.65 
  383500     1400.925    152.98016      2204118          147  0.007193656   -148234.91   -144919.26 
  383600    1403.6218   -70.481623      2204118          147  0.007193656   -148399.72   -145077.68 
  383700    1371.8792   -151.02856      2204118          147  0.007193656    -148383.5   -145136.59 
  383800    1365.5165    186.51629      2204118          147  0.007193656   -148264.68   -145032.83 
  383900    1468.0269    36.375858      2204118          147  0.007193656   -148252.69   -144778.22 
  384000    1411.5188    27.132257      2204118          147  0.007193656   -148112.08   -144771.35 
  384100    1404.7316   -80.306239      2204118          147  0.007193656   -148215.15   -144890.48 
  384200    1371.1917   -32.058741      2204118          147  0.007193656   -148207.13   -144961.84 
  384300    1392.1291   -17.663747      2204118          147  0.007193656   -148277.89   -144983.05 
  384400    1394.4408    41.706864      2204118          147  0.007193656   -148316.95   -145016.64 
  384500    1369.5949    90.648169      2204118          147  0.007193656   -148374.46   -145132.95 
  384600     1360.319    159.47122      2204118          147  0.007193656   -148495.59   -145276.04 
  384700    1394.1897    -86.33756      2204118          147  0.007193656   -148479.32    -145179.6 
  384800    1472.7063   -108.07293      2204118          147  0.007193656   -148430.41   -144944.86 
  384900    1463.1572     28.46415      2204118          147  0.007193656   -148304.35    -144841.4 
  385000    1454.1271   -118.47092      2204118          147  0.007193656   -148367.67   -144926.09 
  385100    1429.6768    247.18064      2204118          147  0.007193656    -148446.5    -145062.8 
  385200    1352.6222   -72.377948      2204118          147  0.007193656   -148347.92   -145146.59 
  385300     1423.159   -33.037474      2204118          147  0.007193656   -148429.76   -145061.48 
  385400    1415.1517   -63.931232      2204118          147  0.007193656   -148136.71   -144787.38 
  385500    1368.8444    41.881133      2204118          147  0.007193656   -148022.45   -144782.72 
  385600    1379.9845   -114.23652      2204118          147  0.007193656   -148219.06   -144952.97 
  385700    1413.8333    96.988123      2204118          147  0.007193656   -148430.98   -145084.77 
  385800    1409.0607    104.82069      2204118          147  0.007193656   -148479.06   -145144.15 
  385900    1349.7378   -92.758386      2204118          147  0.007193656   -148364.35   -145169.84 
  386000    1407.4687   -67.172509      2204118          147  0.007193656   -148337.94   -145006.79 
  386100    1455.1748   -255.06692      2204118          147  0.007193656   -148240.74   -144796.68 
  386200    1433.2525    110.86692      2204118          147  0.007193656    -148261.5   -144869.33 
  386300    1434.2996    115.65641      2204118          147  0.007193656   -148438.44    -145043.8 
  386400    1347.7662    98.060347      2204118          147  0.007193656   -148324.45   -145134.61 
  386500    1371.7394    26.621426      2204118          147  0.007193656    -148379.3   -145132.72 
  386600     1416.068   -194.33478      2204118          147  0.007193656   -148396.61   -145045.11 
  386700    1480.1867   -76.071281      2204118          147  0.007193656   -148320.26   -144817.01 
  386800    1509.4372    31.135978      2204118          147  0.007193656   -148244.19   -144671.71 
  386900    1413.6196   -9.0934856      2204118          147  0.007193656   -148185.01   -144839.31 
  387000    1400.5943    59.348225      2204118          147  0.007193656   -148277.25   -144962.37 
  387100    1367.7719    -1.055582      2204118          147  0.007193656   -148330.71   -145093.52 
  387200    1432.7796   -53.501727      2204118          147  0.007193656   -148531.37   -145140.32 
  387300    1397.7668   -94.467453      2204118          147  0.007193656   -148390.19   -145082.01 
  387400    1464.8236   -5.0717086      2204118          147  0.007193656   -148258.79    -144791.9 
  387500    1456.5681    6.2502469      2204118          147  0.007193656   -148233.72   -144786.36 
  387600    1402.3754   -83.959109      2204118          147  0.007193656   -148288.31   -144969.22 
  387700    1434.8214   -145.84303      2204118          147  0.007193656   -148466.79   -145070.91 
  387800    1426.6628   -136.39044      2204118          147  0.007193656   -148415.68    -145039.1 
  387900    1416.3399    12.624237      2204118          147  0.007193656   -148308.98   -144956.84 
  388000    1462.4627    -157.1705      2204118          147  0.007193656   -148245.88   -144784.58 
  388100     1517.047    138.56711      2204118          147  0.007193656   -148216.07   -144625.58 
  388200    1435.1349    138.85751      2204118          147  0.007193656   -148258.77   -144862.15 
  388300    1435.5381   -44.852856      2204118          147  0.007193656   -148409.92   -145012.34 
  388400    1424.3998    -51.61638      2204118          147  0.007193656   -148496.16   -145124.94 
  388500    1352.8721    -130.9221      2204118          147  0.007193656   -148387.13    -145185.2 
  388600    1377.2589    37.977932      2204118          147  0.007193656   -148444.66   -145185.02 
  388700    1405.8275    39.798575      2204118          147  0.007193656   -148301.52   -144974.26 
  388800    1451.8538    196.19961      2204118          147  0.007193656   -148293.36   -144857.17 
  388900    1421.0124   -76.635471      2204118          147  0.007193656   -148303.72   -144940.52 
  389000    1413.0462    52.188611      2204118          147  0.007193656   -148398.67   -145054.33 
  389100    1395.6882    24.964478      2204118          147  0.007193656   -148395.25   -145091.98 
  389200    1395.0445   -20.590946      2204118          147  0.007193656   -148377.35   -145075.61 
  389300    1334.9394    233.33278      2204118          147  0.007193656   -148209.46   -145049.97 
  389400    1462.0642   -73.603221      2204118          147  0.007193656   -148416.18   -144955.83 
  389500    1412.5169    53.518448      2204118          147  0.007193656    -148140.8   -144797.71 
  389600    1439.0203    -114.1791      2204118          147  0.007193656   -148133.87   -144728.05 
  389700    1461.4033    80.981793      2204118          147  0.007193656   -148357.85   -144899.05 
  389800    1371.3789    52.411867      2204118          147  0.007193656    -148319.3   -145073.57 
  389900      1366.88     106.1721      2204118          147  0.007193656   -148332.81   -145097.73 
  390000    1369.7069   -102.92957      2204118          147  0.007193656   -148308.37    -145066.6 
  390100    1397.2289     169.3537      2204118          147  0.007193656   -148178.02   -144871.11 
  390200    1529.6884    82.993546      2204118          147  0.007193656   -148350.74   -144730.33 
  390300    1401.9031    -108.1994      2204118          147  0.007193656   -148162.43   -144844.46 
  390400    1458.4879     66.65124      2204118          147  0.007193656   -148396.21   -144944.32 
  390500    1428.9035    57.578465      2204118          147  0.007193656   -148371.55   -144989.67 
  390600    1411.4319    -8.632553      2204118          147  0.007193656   -148385.95   -145045.42 
  390700    1302.7707    266.87513      2204118          147  0.007193656   -148211.32   -145127.97 
  390800    1411.2616   -88.468379      2204118          147  0.007193656   -148491.33   -145151.21 
  390900    1340.4763   -18.389193      2204118          147  0.007193656   -148166.67   -144994.08 
  391000    1390.7554   -32.048442      2204118          147  0.007193656   -148113.96   -144822.37 
  391100    1464.1144   -29.039242      2204118          147  0.007193656    -148354.1   -144888.89 
  391200    1405.3458    121.86345      2204118          147  0.007193656   -148375.09   -145048.97 
  391300    1392.9674   -28.033823      2204118          147  0.007193656   -148457.66   -145160.84 
  391400    1385.4148   -28.102365      2204118          147  0.007193656   -148376.91   -145097.96 
  391500    1401.2489    191.18769      2204118          147  0.007193656   -148353.06   -145036.63 
  391600    1435.8448    47.260928      2204118          147  0.007193656   -148408.06   -145009.76 
  391700    1452.6947    34.506554      2204118          147  0.007193656   -148435.59   -144997.41 
  391800    1404.1085     1.372822      2204118          147  0.007193656   -148397.55   -145074.36 
  391900    1379.2029   -83.384779      2204118          147  0.007193656   -148474.21   -145209.96 
  392000    1362.2851    100.47316      2204118          147  0.007193656   -148479.54   -145255.34 
  392100    1312.1642    257.66726      2204118          147  0.007193656   -148164.84   -145059.26 
  392200    1391.3639    26.337136      2204118          147  0.007193656   -148228.53    -144935.5 
  392300     1377.228   -246.11918      2204118          147  0.007193656   -148167.78   -144908.21 
  392400    1434.0989    71.325192      2204118          147  0.007193656   -148375.47    -144981.3 
  392500    1434.4089   -67.821207      2204118          147  0.007193656   -148500.94   -145106.04 
  392600    1330.2078   -55.796649      2204118          147  0.007193656   -148262.66   -145114.38 
  392700    1396.7757    170.83672      2204118          147  0.007193656   -148425.53   -145119.69 
  392800    1384.4136   -3.7441381      2204118          147  0.007193656   -148375.66   -145099.08 
  392900    1365.5529   -151.65668      2204118          147  0.007193656   -148305.76   -145073.82 
  393000    1452.4633   -95.685457      2204118          147  0.007193656   -148334.15   -144896.52 
  393100    1419.3838    -44.54731      2204118          147  0.007193656   -148153.56   -144794.21 
  393200    1399.0741    11.251902      2204118          147  0.007193656   -148197.23   -144885.95 
  393300     1416.273    61.353159      2204118          147  0.007193656   -148443.55   -145091.56 
  393400    1362.8193    28.616553      2204118          147  0.007193656   -148377.31   -145151.84 
  393500    1376.0004   -154.12014      2204118          147  0.007193656   -148399.06   -145142.39 
  393600    1445.6576    12.627492      2204118          147  0.007193656   -148408.74   -144987.21 
  393700    1436.4115   -74.599985      2204118          147  0.007193656   -148188.03   -144788.39 
  393800    1470.2082    4.3763629      2204118          147  0.007193656   -148263.84   -144784.21 
  393900    1387.8065    113.89346      2204118          147  0.007193656   -148372.75   -145088.14 
  394000     1413.722    76.262176      2204118          147  0.007193656   -148495.87   -145149.92 
  394100    1369.6463   -98.330676      2204118          147  0.007193656   -148335.08   -145093.45 
  394200    1418.5372   -123.71199      2204118          147  0.007193656   -148311.81   -144954.47 
  394300    1449.4675    33.569757      2204118          147  0.007193656      -148272   -144841.45 
  394400    1395.2091    41.539587      2204118          147  0.007193656   -148330.79   -145028.66 
  394500    1336.0045   -53.506533      2204118          147  0.007193656   -148341.47   -145179.47 
  394600    1346.1377   -53.682111      2204118          147  0.007193656   -148367.38   -145181.39 
  394700    1503.0233    16.175386      2204118          147  0.007193656   -148559.85   -145002.55 
  394800    1395.5483    237.29523      2204118          147  0.007193656   -148197.86   -144894.93 
  394900     1418.313    53.732058      2204118          147  0.007193656   -148346.57   -144989.76 
  395000    1334.5123   -33.624283      2204118          147  0.007193656   -148409.97    -145251.5 
  395100    1402.0973   -144.31694      2204118          147  0.007193656   -148556.13    -145237.7 
  395200    1421.9214   -35.756216      2204118          147  0.007193656   -148431.05    -145065.7 
  395300     1413.066    27.707914      2204118          147  0.007193656   -148276.64   -144932.24 
  395400    1466.0056   -118.67323      2204118          147  0.007193656    -148391.4   -144921.71 
  395500    1410.9538    92.961261      2204118          147  0.007193656   -148444.22   -145104.83 
  395600    1312.1151   -99.196193      2204118          147  0.007193656   -148349.53   -145244.07 
  395700    1346.7748    58.379842      2204118          147  0.007193656   -148382.97   -145195.47 
  395800    1345.4175  -0.28760153      2204118          147  0.007193656   -148225.73   -145041.45 
  395900    1427.3431   -105.93876      2204118          147  0.007193656   -148272.39    -144894.2 
  396000    1492.5976   -85.605331      2204118          147  0.007193656   -148402.97   -144870.34 
  396100    1363.3915    201.16473      2204118          147  0.007193656   -148336.07   -145109.24 
  396200    1290.7663    -69.29333      2204118          147  0.007193656   -148274.28   -145219.35 
  396300    1391.4309    18.734427      2204118          147  0.007193656   -148466.36   -145173.17 
  396400    1366.5931    60.677664      2204118          147  0.007193656   -148290.67   -145056.27 
  396500    1426.0363   -52.654032      2204118          147  0.007193656   -148198.58   -144823.49 
  396600    1436.0528    96.629646      2204118          147  0.007193656   -148211.93   -144813.14 
  396700    1411.6133   -38.761822      2204118          147  0.007193656   -148239.18   -144898.22 
  396800    1372.9749   -79.296564      2204118          147  0.007193656   -148239.91    -144990.4 
  396900    1378.6836    33.807565      2204118          147  0.007193656   -148349.93   -145086.91 
  397000    1368.7903    -153.5112      2204118          147  0.007193656   -148449.52   -145209.92 
  397100    1406.3646    56.541674      2204118          147  0.007193656   -148682.27   -145353.74 
  397200    1314.9426    61.279333      2204118          147  0.007193656    -148619.6   -145507.44 
  397300    1325.1002    -35.58174      2204118          147  0.007193656   -148480.49   -145344.29 
  397400    1430.9508    69.688647      2204118          147  0.007193656   -148517.25   -145130.53 
  397500    1369.5358    -52.64497      2204118          147  0.007193656   -148252.73   -145011.37 
  397600    1482.0841    16.190148      2204118          147  0.007193656   -148435.17   -144927.43 
  397700     1429.275    -23.47946      2204118          147  0.007193656   -148288.51   -144905.76 
  397800    1440.0887     -204.312      2204118          147  0.007193656      -148464   -145055.65 
  397900    1400.8617    91.918072      2204118          147  0.007193656   -148548.06   -145232.55 
  398000    1408.6603   -117.99125      2204118          147  0.007193656   -148554.41   -145220.44 
  398100    1394.0778   -3.8684418      2204118          147  0.007193656   -148357.03   -145057.57 
  398200     1449.457   -70.018192      2204118          147  0.007193656   -148389.89   -144959.37 
  398300    1395.1848   -110.32117      2204118          147  0.007193656   -148297.98   -144995.91 
  398400    1391.5935   -48.860665      2204118          147  0.007193656   -148331.68   -145038.11 
  398500    1343.1726   -41.167679      2204118          147  0.007193656    -148337.2   -145158.23 
  398600    1319.6804    8.3967119      2204118          147  0.007193656   -148515.52   -145392.15 
  398700    1308.7987    136.12412      2204118          147  0.007193656   -148509.15   -145411.53 
  398800    1354.5033    78.279061      2204118          147  0.007193656   -148366.29    -145160.5 
  398900    1400.7204   -98.991483      2204118          147  0.007193656   -148402.35   -145087.18 
  399000    1417.9588   -15.832259      2204118          147  0.007193656   -148402.15   -145046.17 
  399100    1397.2577   -31.216181      2204118          147  0.007193656   -148364.98      -145058 
  399200    1341.9341   -83.118133      2204118          147  0.007193656   -148249.66   -145073.62 
  399300    1410.0454    2.8865896      2204118          147  0.007193656   -148416.04    -145078.8 
  399400    1274.0025    79.229868      2204118          147  0.007193656   -148210.04   -145194.77 
  399500    1388.7777   -57.762335      2204118          147  0.007193656      -148551   -145264.09 
  399600    1370.8465    99.623605      2204118          147  0.007193656   -148493.04   -145248.57 
  399700    1377.0657    42.307946      2204118          147  0.007193656   -148265.93   -145006.74 
  399800     1408.896    216.01495      2204118          147  0.007193656    -148231.9   -144897.38 
  399900    1432.3651   -5.9356633      2204118          147  0.007193656   -148336.37    -144946.3 
  400000    1343.8352   -114.54754      2204118          147  0.007193656   -148350.76   -145170.23 
  400057    1393.8282   -124.57148      2204118          147  0.007193656   -148541.75   -145242.89 
Loop time of 5245.47 on 16 procs for 400000 steps with 795 atoms

Performance: 1.647 ns/day, 14.571 hours/ns, 76.256 timesteps/s
99.9% CPU use with 16 MPI tasks x no OpenMP threads

MPI task timing breakdown:
Section |  min time  |  avg time  |  max time  |%varavg| %total
---------------------------------------------------------------
Pair    | 0.23391    | 1203.1     | 4268       |4343.2 | 22.94
Neigh   | 0.043362   | 4.1416     | 8.8314     | 201.1 |  0.08
Comm    | 0.82583    | 789.21     | 3113.8     |3821.5 | 15.05
Output  | 0.42623    | 0.46336    | 0.58012    |   5.0 |  0.01
Modify  | 934.94     | 3247.2     | 5242.9     |3545.7 | 61.91
Other   |            | 1.303      |            |       |  0.02

Nlocal:        49.6875 ave         208 max           0 min
Histogram: 12 0 0 0 0 0 0 0 0 4
Nghost:        158.812 ave         423 max           0 min
Histogram: 8 0 0 0 0 4 0 0 0 4
Neighs:        3055.69 ave       12835 max           0 min
Histogram: 12 0 0 0 0 0 0 0 0 4

Total # of neighbors = 48891
Ave neighs/atom = 61.498113
Neighbor list builds = 16308
Dangerous builds = 1

write_data graphene_single_layer_ReaxFF_795_C_temp_1400K.data
System init for write_data ...
Total wall time: 1:27:29
