
# System definition
read_data graphene_single_layer_x-45_y-45_795_C.data
Reading data file ...
  orthogonal box = (-51.000000 -51.000000 -51.000000) to (96.000000 96.000000 51.000000)
  2 by 4 by 2 MPI processor grid
  reading atoms ...
  795 atoms
  read_data CPU = 0.017 seconds

pair_style reax/c NULL
pair_coeff * * ffield.reax.cho C
Reading potential file ffield.reax.cho with DATE: 2011-02-18
fix qeq_reax all qeq/reax 1 0.0 10.0 1.0e-6 reax/c


# Minimization
timestep 0.25
min_style cg
thermo 100
thermo_style custom step temp press vol lx density pe etotal
dump 2 all custom 1000 graphene_single_layer_ReaxFF_795_C_temp_1100K.lammpstrj id type x y z
minimize 1.0e-6 1.0e-6 100 1000

CITE-CITE-CITE-CITE-CITE-CITE-CITE-CITE-CITE-CITE-CITE-CITE-CITE

Your simulation uses code contributions which should be cited:

- pair reaxff command:

@Article{Aktulga12,
 author = {H. M. Aktulga, J. C. Fogarty, S. A. Pandit, A. Y. Grama},
 title = {Parallel reactive molecular dynamics: Numerical methods and algorithmic techniques},
 journal = {Parallel Computing},
 year =    2012,
 volume =  38,
 pages =   {245--259}
}

- fix qeq/reaxff command:

@Article{Aktulga12,
 author = {H. M. Aktulga, J. C. Fogarty, S. A. Pandit, A. Y. Grama},
 title = {Parallel reactive molecular dynamics: Numerical methods and algorithmic techniques},
 journal = {Parallel Computing},
 year =    2012,
 volume =  38,
 pages =   {245--259}
}

CITE-CITE-CITE-CITE-CITE-CITE-CITE-CITE-CITE-CITE-CITE-CITE-CITE

WARNING: Using 'neigh_modify every 1 delay 0 check yes' setting during minimization (../min.cpp:188)
Neighbor list info ...
  update every 1 steps, delay 0 steps, check yes
  max neighbors/atom: 10000, page size: 100000
  master list distance cutoff = 10.4
  ghost atom cutoff = 10.4
  binsize = 5.2, bins = 29 29 20
  2 neighbor lists, perpetual/occasional/extra = 2 0 0
  (1) pair reax/c, perpetual
      attributes: half, newton off, ghost
      pair build: half/bin/newtoff/ghost
      stencil: full/ghost/bin/3d
      bin: standard
  (2) fix qeq/reax, perpetual, copy from (1)
      attributes: half, newton off, ghost
      pair build: copy
      stencil: none
      bin: none
Per MPI rank memory allocation (min/avg/max) = 7.965 | 10.90 | 14.56 Mbytes
Step Temp Press Volume Lx Density PotEng TotEng 
       0            0    4589.6155      2204118          147  0.007193656   -142445.78   -142445.78 
      57            0    1294.9092      2204118          147  0.007193656   -150031.46   -150031.46 
Loop time of 3.86464 on 16 procs for 57 steps with 795 atoms

99.9% CPU use with 16 MPI tasks x no OpenMP threads

Minimization stats:
  Stopping criterion = energy tolerance
  Energy initial, next-to-last, final = 
     -142445.777810412  -150031.434465826  -150031.460524184
  Force two-norm initial, final = 2416.1570 1787.6736
  Force max component initial, final = 272.51119 337.29483
  Final line search alpha, max atom move = 0.00017977701 0.060637855
  Iterations, force evaluations = 57 237

MPI task timing breakdown:
Section |  min time  |  avg time  |  max time  |%varavg| %total
---------------------------------------------------------------
Pair    | 0.00022301 | 0.75034    | 2.7194     | 109.2 | 19.42
Neigh   | 2.7063e-05 | 0.001585   | 0.0034301  |   3.9 |  0.04
Comm    | 0.00041564 | 0.50898    | 2.0026     |  95.4 | 13.17
Output  | 0          | 0          | 0          |   0.0 |  0.00
Modify  | 1.1079     | 1.1113     | 1.1139     |   0.2 | 28.76
Other   |            | 1.492      |            |       | 38.62

Nlocal:        49.6875 ave         209 max           0 min
Histogram: 12 0 0 0 0 0 0 0 0 4
Nghost:        162.812 ave         432 max           0 min
Histogram: 8 0 0 0 0 4 0 0 0 4
Neighs:        3113.44 ave       13116 max           0 min
Histogram: 12 0 0 0 0 0 0 0 0 4

Total # of neighbors = 49815
Ave neighs/atom = 62.660377
Neighbor list builds = 6
Dangerous builds = 0

fix 1 all nvt temp 1100.0 1100.0 $(100.0*dt)
fix 1 all nvt temp 1100.0 1100.0 25
run 400000
Per MPI rank memory allocation (min/avg/max) = 6.841 | 9.777 | 13.44 Mbytes
Step Temp Press Volume Lx Density PotEng TotEng 
      57            0    1294.9092      2204118          147  0.007193656   -150031.46   -150031.46 
     100     121.4847    1524.2462      2204118          147  0.007193656   -150304.18   -150016.66 
     200    294.04178   -717.14126      2204118          147  0.007193656   -150482.37   -149786.44 
     300     348.5593   -846.90717      2204118          147  0.007193656   -150332.37   -149507.41 
     400    450.80224   -856.73031      2204118          147  0.007193656   -150156.62   -149089.67 
     500    670.55401    588.33322      2204118          147  0.007193656    -150084.4   -148497.36 
     600     633.2016    1239.3928      2204118          147  0.007193656   -149409.77   -147911.13 
     700    922.08716   -218.54567      2204118          147  0.007193656    -149364.6   -147182.24 
     800    864.76783   -848.31555      2204118          147  0.007193656   -148549.19   -146502.49 
     900    1009.1337    -845.6526      2204118          147  0.007193656   -148196.25   -145807.87 
    1000    1465.5941   -307.91571      2204118          147  0.007193656   -148818.77   -145350.05 
    1100    1067.2426    958.58447      2204118          147  0.007193656   -148725.74   -146199.83 
    1200    927.55735    1221.3166      2204118          147  0.007193656   -148685.84   -146490.53 
    1300    1183.1035   -175.08207      2204118          147  0.007193656   -148968.76   -146168.64 
    1400    1130.6726   -678.46074      2204118          147  0.007193656   -148711.37   -146035.33 
    1500    1140.6408   -501.38998      2204118          147  0.007193656    -148817.5   -146117.87 
    1600    1168.1332   -262.74381      2204118          147  0.007193656      -149080   -146315.31 
    1700    988.40659    684.66301      2204118          147  0.007193656   -149024.53   -146685.21 
    1800    1024.4375    574.31351      2204118          147  0.007193656   -149045.67   -146621.07 
    1900    1092.9162   -522.91428      2204118          147  0.007193656    -148834.4   -146247.73 
    2000    1101.5864   -559.56758      2204118          147  0.007193656   -148559.91   -145952.72 
    2100    1126.8223   -657.44071      2204118          147  0.007193656   -148498.72    -145831.8 
    2200    1256.1117    -345.5378      2204118          147  0.007193656   -148898.21   -145925.29 
    2300    1109.5081    827.40338      2204118          147  0.007193656   -149064.61   -146438.67 
    2400    932.62687     1310.019      2204118          147  0.007193656   -148835.93   -146628.63 
    2500    1143.1556   -128.32608      2204118          147  0.007193656    -149040.9   -146335.32 
    2600    1174.5549   -525.99877      2204118          147  0.007193656   -149003.41   -146223.52 
    2700    1108.8996   -710.35356      2204118          147  0.007193656   -148896.87   -146272.37 
    2800    1111.4939   -314.12124      2204118          147  0.007193656   -148869.03   -146238.39 
    2900    1085.8304    333.60591      2204118          147  0.007193656   -148784.53   -146214.62 
    3000    1137.0085    235.12183      2204118          147  0.007193656   -148836.78   -146145.75 
    3100     1171.811   -26.953744      2204118          147  0.007193656   -148917.37   -146143.97 
    3200    1122.0463   -486.10088      2204118          147  0.007193656   -149110.07   -146454.45 
    3300    1086.3222   -281.76467      2204118          147  0.007193656   -149270.72   -146699.65 
    3400    1074.0937    52.903099      2204118          147  0.007193656   -149344.59   -146802.46 
    3500    1021.3029    706.88715      2204118          147  0.007193656   -149113.09   -146695.91 
    3600    1102.3702    462.03808      2204118          147  0.007193656    -148933.9   -146324.85 
    3700    1198.0504   -250.86373      2204118          147  0.007193656   -148912.29   -146076.78 
    3800    1195.8589   -311.92881      2204118          147  0.007193656   -149024.71   -146194.39 
    3900    1154.8206   -301.20052      2204118          147  0.007193656    -149318.4   -146585.21 
    4000     1040.355    212.30749      2204118          147  0.007193656   -149352.58    -146890.3 
    4100    972.92891    442.55211      2204118          147  0.007193656   -149167.54   -146864.85 
    4200    1141.2645   -251.29421      2204118          147  0.007193656    -149247.2    -146546.1 
    4300    1151.6224   -399.41691      2204118          147  0.007193656    -149031.1   -146305.48 
    4400     1120.839    -472.7206      2204118          147  0.007193656   -148915.18   -146262.42 
    4500    1149.2648   -157.45485      2204118          147  0.007193656   -149197.11   -146477.07 
    4600    1039.6707    434.41361      2204118          147  0.007193656   -149209.61   -146748.95 
    4700    1006.4928    597.45948      2204118          147  0.007193656   -149159.75   -146777.62 
    4800    1140.7484    40.980205      2204118          147  0.007193656   -149241.94   -146542.06 
    4900    1143.3574   -210.98119      2204118          147  0.007193656   -149100.11   -146394.06 
    5000    1169.5751   -196.68626      2204118          147  0.007193656   -149218.54   -146450.44 
    5100    1032.9649   -10.302144      2204118          147  0.007193656   -149154.57   -146709.78 
    5200    1052.8103    71.067861      2204118          147  0.007193656   -149340.73   -146848.98 
    5300     1049.845    34.440258      2204118          147  0.007193656   -149163.56   -146678.82 
    5400     1162.253   -153.28633      2204118          147  0.007193656    -149183.7   -146432.93 
    5500    1125.0484    -280.9957      2204118          147  0.007193656    -149035.8   -146373.08 
    5600    1149.9262   -230.62745      2204118          147  0.007193656   -149183.85   -146462.25 
    5700    1074.5955    217.41617      2204118          147  0.007193656   -149256.11    -146712.8 
    5800    1030.9048     402.8919      2204118          147  0.007193656   -149260.94   -146821.03 
    5900    1072.2319    225.31227      2204118          147  0.007193656   -149217.18   -146679.47 
    6000    1115.4127   -152.94133      2204118          147  0.007193656    -149111.1   -146471.18 
    6100    1138.8302   -145.30178      2204118          147  0.007193656   -149100.72   -146405.37 
    6200    1156.8832    38.129646      2204118          147  0.007193656   -149311.92   -146573.85 
    6300    1072.2727    199.66746      2204118          147  0.007193656   -149320.44   -146782.63 
    6400    1016.7926    198.31314      2204118          147  0.007193656   -149183.15   -146776.64 
    6500    1096.3659   -254.66161      2204118          147  0.007193656   -149168.27   -146573.43 
    6600    1138.9215    -282.7457      2204118          147  0.007193656   -149130.41   -146434.85 
    6700     1101.998    -202.8248      2204118          147  0.007193656   -149028.61   -146420.44 
    6800     1199.301    63.348621      2204118          147  0.007193656   -149412.24   -146573.78 
    6900    1038.2456    412.26449      2204118          147  0.007193656   -149176.04   -146718.76 
    7000    1023.1392    155.12865      2204118          147  0.007193656   -149125.16   -146703.63 
    7100    1068.9356    50.097987      2204118          147  0.007193656   -149087.84   -146557.92 
    7200    1139.0517   -131.83466      2204118          147  0.007193656   -149159.97   -146464.11 
    7300    1110.8319    79.587313      2204118          147  0.007193656   -149136.77   -146507.69 
    7400     1074.494   -22.439996      2204118          147  0.007193656   -149178.28   -146635.21 
    7500    1094.0916   -112.89975      2204118          147  0.007193656   -149244.72   -146655.27 
    7600    1102.9684   -115.46674      2204118          147  0.007193656    -149163.3   -146552.83 
    7700    1083.7904   -255.77948      2204118          147  0.007193656    -149040.8   -146475.72 
    7800    1150.0253   -98.685066      2204118          147  0.007193656   -149172.62   -146450.79 
    7900    1160.1496    66.038436      2204118          147  0.007193656   -149290.13   -146544.33 
    8000    1067.4635    226.42261      2204118          147  0.007193656   -149297.56   -146771.13 
    8100    1071.9594    220.33897      2204118          147  0.007193656   -149330.82   -146793.75 
    8200    1056.4091    180.60888      2204118          147  0.007193656   -149124.52   -146624.25 
    8300    1102.3428   -132.75795      2204118          147  0.007193656    -149085.7   -146476.71 
    8400    1137.6851   -104.25284      2204118          147  0.007193656    -149110.6   -146417.97 
    8500    1189.8803    54.147817      2204118          147  0.007193656   -149316.23   -146500.06 
    8600    1086.0557    79.562442      2204118          147  0.007193656   -149253.75   -146683.32 
    8700     1055.956    15.003271      2204118          147  0.007193656   -149197.08   -146697.88 
    8800    1117.3526    -217.0994      2204118          147  0.007193656   -149233.28   -146588.77 
    8900    1043.3772   -232.13594      2204118          147  0.007193656   -148930.99   -146461.56 
    9000    1159.1047   -118.11168      2204118          147  0.007193656   -149163.35   -146420.03 
    9100    1129.3495    54.344544      2204118          147  0.007193656   -149173.27   -146500.37 
    9200    1067.6536    215.84518      2204118          147  0.007193656   -149125.82   -146598.94 
    9300    1147.1503    201.95387      2204118          147  0.007193656   -149328.33    -146613.3 
    9400    1113.0397   -95.066857      2204118          147  0.007193656   -149242.74   -146608.44 
    9500    1083.5201   -77.118108      2204118          147  0.007193656   -149052.74    -146488.3 
    9600    1163.6529    -48.59204      2204118          147  0.007193656    -149093.5   -146339.41 
    9700    1147.1329    226.72145      2204118          147  0.007193656   -149184.93   -146469.94 
    9800    1116.7699    82.704744      2204118          147  0.007193656   -149242.73    -146599.6 
    9900    1099.0158   -161.92474      2204118          147  0.007193656   -149242.68   -146641.57 
   10000    1060.1877   -229.78259      2204118          147  0.007193656   -149133.46   -146624.25 
   10100     1120.334   -87.427077      2204118          147  0.007193656   -149121.11   -146469.54 
   10200    1134.0197      185.385      2204118          147  0.007193656    -149093.3   -146409.34 
   10300    1116.0839    149.78721      2204118          147  0.007193656   -149179.76   -146538.26 
   10400    1113.8315    165.02417      2204118          147  0.007193656   -149264.65   -146628.47 
   10500    1079.9759   -21.051693      2204118          147  0.007193656    -149209.8   -146653.75 
   10600     1058.316   -68.027905      2204118          147  0.007193656    -149176.6   -146671.82 
   10700     1159.251    68.800273      2204118          147  0.007193656   -149274.01   -146530.33 
   10800    1123.3372    12.719536      2204118          147  0.007193656   -149125.28    -146466.6 
   10900    1114.2361    136.16416      2204118          147  0.007193656   -149225.51   -146588.37 
   11000    1115.0481    -187.8133      2204118          147  0.007193656   -149374.97   -146735.91 
   11100    1032.8065   -190.90454      2204118          147  0.007193656   -149161.31    -146716.9 
   11200    1119.9571     63.37647      2204118          147  0.007193656   -149211.82   -146561.15 
   11300    1133.7611   -144.77743      2204118          147  0.007193656   -149143.14    -146459.8 
   11400    1168.5919   -101.13117      2204118          147  0.007193656   -149256.47   -146490.69 
   11500    1099.3094    12.153249      2204118          147  0.007193656   -149239.33   -146637.53 
   11600    1063.9519    152.77767      2204118          147  0.007193656   -149204.81   -146686.69 
   11700    1134.8098    119.46791      2204118          147  0.007193656   -149349.48   -146663.65 
   11800    1085.1236    4.0782469      2204118          147  0.007193656   -149136.75   -146568.52 
   11900    1119.8919   -24.918325      2204118          147  0.007193656   -149108.68   -146458.16 
   12000    1097.9318    86.348918      2204118          147  0.007193656   -149095.16   -146496.62 
   12100    1087.9406   -12.919454      2204118          147  0.007193656   -149294.78   -146719.88 
   12200    1050.3337   -58.901501      2204118          147  0.007193656   -149245.58   -146759.69 
   12300    1115.8394   -100.73015      2204118          147  0.007193656   -149276.62    -146635.7 
   12400    1113.4985   -60.590219      2204118          147  0.007193656   -149123.02   -146487.63 
   12500     1088.212    22.915474      2204118          147  0.007193656   -149058.47   -146482.93 
   12600    1127.7199   -65.647588      2204118          147  0.007193656   -149242.26   -146573.21 
   12700    1116.5087   -38.368173      2204118          147  0.007193656   -149293.03   -146650.52 
   12800    1091.9303    52.734768      2204118          147  0.007193656   -149225.96   -146641.62 
   12900     1123.008   -34.136951      2204118          147  0.007193656   -149230.67   -146572.77 
   13000     1093.943    109.39721      2204118          147  0.007193656   -149037.15   -146448.05 
   13100    1154.9348   -38.008444      2204118          147  0.007193656   -149025.86    -146292.4 
   13200    1204.1965    2.8062191      2204118          147  0.007193656   -149128.09   -146278.04 
   13300    1109.4509    143.03581      2204118          147  0.007193656   -149162.54   -146536.73 
   13400    1057.6473    124.78001      2204118          147  0.007193656   -149171.49   -146668.29 
   13500    1090.6072   -8.0974691      2204118          147  0.007193656   -149292.45   -146711.24 
   13600     1075.295   -5.5164222      2204118          147  0.007193656   -149197.55   -146652.58 
   13700    1097.1144   -102.75005      2204118          147  0.007193656   -149093.65   -146497.04 
   13800    1125.2611   -95.280071      2204118          147  0.007193656   -149124.67   -146461.45 
   13900    1102.8423    138.52597      2204118          147  0.007193656   -149160.01   -146549.84 
   14000    1087.0456    264.74445      2204118          147  0.007193656   -149218.04   -146645.26 
   14100    1053.5598    182.28406      2204118          147  0.007193656   -149143.74   -146650.21 
   14200    1080.5319   -100.07638      2204118          147  0.007193656   -149163.14   -146605.78 
   14300    1123.5396   -87.172897      2204118          147  0.007193656   -149232.37   -146573.22 
   14400    1113.5196   -294.83867      2204118          147  0.007193656   -149187.92   -146552.48 
   14500    1066.3453    63.321228      2204118          147  0.007193656   -149081.93   -146558.15 
   14600    1076.5824    46.495367      2204118          147  0.007193656   -149214.61    -146666.6 
   14700    1073.2763    -76.20826      2204118          147  0.007193656   -149268.57   -146728.38 
   14800    1081.1911    5.8359668      2204118          147  0.007193656   -149150.35   -146591.42 
   14900    1097.5901   -133.49793      2204118          147  0.007193656   -149131.93   -146534.19 
   15000    1071.7603    82.527546      2204118          147  0.007193656   -149085.53   -146548.92 
   15100    1115.1757    53.547936      2204118          147  0.007193656   -149250.53   -146611.17 
   15200    1060.1984    56.875658      2204118          147  0.007193656    -149219.7   -146710.46 
   15300    1020.9559    221.49708      2204118          147  0.007193656   -149230.46    -146814.1 
   15400    1031.1216    42.477241      2204118          147  0.007193656   -149333.56   -146893.14 
   15500    1123.8951      104.749      2204118          147  0.007193656    -149400.4   -146740.41 
   15600    1086.7119    60.959465      2204118          147  0.007193656   -149196.39    -146624.4 
   15700    1062.1738    217.66946      2204118          147  0.007193656   -149080.05   -146566.13 
   15800    1122.4587   -42.258368      2204118          147  0.007193656   -149247.29    -146590.7 
   15900    1100.6119   -257.87709      2204118          147  0.007193656   -149298.45   -146693.57 
   16000    1095.1153   -113.27655      2204118          147  0.007193656    -149400.9   -146809.02 
   16100    1071.4068   -174.44388      2204118          147  0.007193656   -149290.46   -146754.69 
   16200    1106.6342    148.31975      2204118          147  0.007193656   -149166.68   -146547.54 
   16300    1120.7746    197.10534      2204118          147  0.007193656   -149183.38   -146530.77 
   16400    1117.0801   -47.645364      2204118          147  0.007193656   -149218.81   -146574.95 
   16500     1080.458   -99.646174      2204118          147  0.007193656   -149147.62   -146590.43 
   16600    1075.3837   -75.508221      2204118          147  0.007193656    -149202.3   -146657.13 
   16700    1061.6502   -127.92737      2204118          147  0.007193656   -149297.96   -146785.29 
   16800    1069.2501    77.476814      2204118          147  0.007193656   -149343.21   -146812.55 
   16900    1104.8975    58.617036      2204118          147  0.007193656   -149253.73    -146638.7 
   17000    1139.0755   -100.04715      2204118          147  0.007193656   -149220.77   -146524.85 
   17100    1091.8012    10.975159      2204118          147  0.007193656    -149103.8   -146519.77 
   17200    1041.1621    -147.4884      2204118          147  0.007193656   -149041.77   -146577.59 
   17300     1142.573   -53.886884      2204118          147  0.007193656   -149358.83   -146654.63 
   17400    1064.1879    153.06883      2204118          147  0.007193656   -149337.79   -146819.11 
   17500    1097.3958    -59.18096      2204118          147  0.007193656   -149392.26   -146794.98 
   17600    1024.9759    36.450213      2204118          147  0.007193656   -149082.71   -146656.83 
   17700    1157.7323   -32.404989      2204118          147  0.007193656   -149311.96   -146571.88 
   17800    1046.4067    76.477833      2204118          147  0.007193656   -149074.48   -146597.88 
   17900    1107.2103    102.04363      2204118          147  0.007193656   -149293.88   -146673.37 
   18000    1054.5762    281.66498      2204118          147  0.007193656   -149267.66   -146771.73 
   18100    1027.9568    51.254824      2204118          147  0.007193656   -149356.73    -146923.8 
   18200    1047.6156   -218.75253      2204118          147  0.007193656   -149339.28   -146859.82 
   18300    1135.0934   -107.55024      2204118          147  0.007193656   -149323.18   -146636.68 
   18400    1136.0302   -24.392436      2204118          147  0.007193656   -149239.12    -146550.4 
   18500    1089.9791    18.021002      2204118          147  0.007193656   -149108.07   -146528.35 
   18600    1074.9437    61.474002      2204118          147  0.007193656   -149147.48   -146603.34 
   18700    1076.4397      125.081      2204118          147  0.007193656   -149278.21   -146730.53 
   18800    1054.3698   -84.017869      2204118          147  0.007193656   -149222.58   -146727.14 
   18900    1120.6597    2.2166754      2204118          147  0.007193656   -149283.51   -146631.17 
   19000    1119.8674    292.49652      2204118          147  0.007193656   -149090.61   -146440.15 
   19100    1115.0334   -3.2653028      2204118          147  0.007193656    -148940.9   -146301.88 
   19200    1165.0552    47.447451      2204118          147  0.007193656   -149156.21    -146398.8 
   19300    1130.9257   -95.152059      2204118          147  0.007193656   -149214.21   -146537.58 
   19400    1068.0068   -106.41688      2204118          147  0.007193656   -149188.34   -146660.63 
   19500    1110.9593    1.8837717      2204118          147  0.007193656   -149304.75   -146675.37 
   19600    1062.5616    146.42071      2204118          147  0.007193656   -149133.78   -146618.95 
   19700     1121.512   -117.02891      2204118          147  0.007193656   -149092.65    -146438.3 
   19800    1119.4033   -14.778967      2204118          147  0.007193656   -149057.53   -146408.17 
   19900    1148.9098   -90.052269      2204118          147  0.007193656   -149194.29   -146475.09 
   20000    1080.4257   -39.207266      2204118          147  0.007193656   -149132.71   -146575.59 
   20100    1107.4714    9.7532446      2204118          147  0.007193656   -149190.69   -146569.57 
   20200    1088.2978    65.927211      2204118          147  0.007193656   -149162.39   -146586.65 
   20300    1102.0509   -87.670314      2204118          147  0.007193656   -149226.75   -146618.46 
   20400    1110.7315   -19.059095      2204118          147  0.007193656   -149346.06   -146717.22 
   20500    1012.0889   -2.2064681      2204118          147  0.007193656   -149137.13   -146741.76 
   20600    1091.5795   -44.258573      2204118          147  0.007193656    -149208.3   -146624.79 
   20700    1129.2156   -15.450496      2204118          147  0.007193656   -149164.13   -146491.54 
   20800    1157.0114   -6.5640651      2204118          147  0.007193656   -149208.15   -146469.77 
   20900    1106.3968    177.69792      2204118          147  0.007193656   -149195.88    -146577.3 
   21000     1069.605   -140.71652      2204118          147  0.007193656   -149246.77   -146715.26 
   21100    1088.1709    -35.26455      2204118          147  0.007193656   -149260.36   -146684.92 
   21200    1064.1834    91.880122      2204118          147  0.007193656   -149146.55   -146627.88 
   21300    1100.7315    19.028283      2204118          147  0.007193656   -149123.38   -146518.21 
   21400    1155.5117    80.768708      2204118          147  0.007193656   -149166.67   -146431.85 
   21500    1133.4132     7.629827      2204118          147  0.007193656   -149023.47   -146340.95 
   21600    1106.2392    92.719551      2204118          147  0.007193656   -149118.37   -146500.16 
   21700    1131.9915   -33.879689      2204118          147  0.007193656   -149326.45    -146647.3 
   21800    1037.0669   -19.853126      2204118          147  0.007193656   -149122.64   -146668.15 
   21900    1102.4428   -109.61208      2204118          147  0.007193656   -149189.46   -146580.24 
   22000    1109.2297   -1.1717083      2204118          147  0.007193656   -149047.61   -146422.33 
   22100    1142.5882   -42.766658      2204118          147  0.007193656   -149013.08   -146308.85 
   22200    1124.9159    99.698814      2204118          147  0.007193656   -149094.22   -146431.81 
   22300    1095.3267    56.170032      2204118          147  0.007193656   -149136.21   -146543.83 
   22400    1094.8644    19.281629      2204118          147  0.007193656   -149217.45   -146626.17 
   22500    1091.3702   -149.27149      2204118          147  0.007193656   -149227.98   -146644.96 
   22600    1095.1523    77.493734      2204118          147  0.007193656   -149176.71   -146584.74 
   22700    1164.5741   -56.979332      2204118          147  0.007193656   -149201.65   -146445.38 
   22800    1149.4408    34.143327      2204118          147  0.007193656   -149128.42   -146407.96 
   22900    1102.1503    129.14689      2204118          147  0.007193656   -149176.55   -146568.02 
   23000    1057.6875     -66.0549      2204118          147  0.007193656   -149141.22   -146637.92 
   23100    1109.7633   -158.75804      2204118          147  0.007193656   -149233.98   -146607.43 
   23200    1088.4695   -122.64427      2204118          147  0.007193656   -149087.53   -146511.38 
   23300    1119.3931    40.592375      2204118          147  0.007193656   -149068.65   -146419.31 
   23400    1099.3417    96.915778      2204118          147  0.007193656   -149173.67   -146571.79 
   23500    1081.7225   -52.057872      2204118          147  0.007193656   -149280.15   -146719.97 
   23600    1054.8806    -4.566069      2204118          147  0.007193656   -149191.27   -146694.62 
   23700    1123.4476    29.931314      2204118          147  0.007193656   -149214.99   -146556.05 
   23800    1074.6846   -204.56872      2204118          147  0.007193656   -149004.99   -146461.46 
   23900    1093.8585    -157.9676      2204118          147  0.007193656   -149105.47   -146516.57 
   24000    1103.7461   -21.756144      2204118          147  0.007193656   -149214.18   -146601.87 
   24100    1101.8743   -120.91824      2204118          147  0.007193656   -149244.01   -146636.13 
   24200    1097.8123    67.784129      2204118          147  0.007193656   -149198.65   -146600.39 
   24300    1104.2446    -63.64553      2204118          147  0.007193656   -149165.98   -146552.49 
   24400    1084.6671   -54.245653      2204118          147  0.007193656   -149139.82   -146572.67 
   24500    1098.7487    27.903684      2204118          147  0.007193656   -149287.12   -146686.64 
   24600    1110.6788   -39.778251      2204118          147  0.007193656   -149450.73   -146822.01 
   24700     1078.677    310.23981      2204118          147  0.007193656    -149349.3   -146796.33 
   24800    1120.1535    47.562041      2204118          147  0.007193656   -149260.95   -146609.81 
   24900    1098.2144    86.994812      2204118          147  0.007193656   -149150.35   -146551.13 
   25000    1117.9547   -232.44659      2204118          147  0.007193656   -149182.67   -146536.74 
   25100     1137.836   -96.424873      2204118          147  0.007193656   -149292.76   -146599.77 
   25200    1067.4154    9.9959134      2204118          147  0.007193656   -149270.73   -146744.41 
   25300    1087.0077    83.434334      2204118          147  0.007193656   -149340.82   -146768.13 
   25400    1089.8222   -116.92716      2204118          147  0.007193656   -149144.81   -146565.46 
   25500    1174.8616   -184.01525      2204118          147  0.007193656   -149240.83   -146460.21 
   25600    1101.7186   -4.5923941      2204118          147  0.007193656   -149145.79   -146538.28 
   25700    1107.1815   -2.6320482      2204118          147  0.007193656   -149247.43   -146626.99 
   25800    1101.9876    189.70955      2204118          147  0.007193656   -149294.42   -146686.28 
   25900    1110.8591    61.328457      2204118          147  0.007193656    -149324.8   -146695.66 
   26000    1104.0659   -193.53614      2204118          147  0.007193656   -149259.35   -146646.29 
   26100    1137.4168    46.928014      2204118          147  0.007193656   -149234.01   -146542.02 
   26200    1135.1184   -74.547567      2204118          147  0.007193656   -149161.75    -146475.2 
   26300    1108.3981    71.838302      2204118          147  0.007193656   -149134.05   -146510.73 
   26400      1115.56    84.342607      2204118          147  0.007193656   -149316.92   -146676.66 
   26500    1008.0342   -121.66083      2204118          147  0.007193656   -149111.86   -146726.08 
   26600    1058.7391   -66.016184      2204118          147  0.007193656   -149153.61   -146647.82 
   26700    1070.0183     6.519727      2204118          147  0.007193656   -149094.28    -146561.8 
   26800    1123.3745    4.0201642      2204118          147  0.007193656   -149203.01   -146544.25 
   26900    1072.8722   -132.36804      2204118          147  0.007193656    -149104.9   -146565.66 
   27000    1096.9308   -35.600253      2204118          147  0.007193656   -149194.11   -146597.94 
   27100    1083.4148    97.771931      2204118          147  0.007193656   -149310.91   -146746.73 
   27200    1050.9698   -69.667534      2204118          147  0.007193656   -149285.05   -146797.65 
   27300    1083.8676    178.97153      2204118          147  0.007193656   -149254.71   -146689.45 
   27400    1129.0452    44.204656      2204118          147  0.007193656   -149230.69    -146558.5 
   27500    1045.5518    98.832094      2204118          147  0.007193656   -149003.19   -146528.62 
   27600    1078.0274   -44.127481      2204118          147  0.007193656   -149103.26   -146551.82 
   27700    1061.4489   -58.670023      2204118          147  0.007193656   -149136.83   -146624.63 
   27800    1085.0949    104.14799      2204118          147  0.007193656   -149232.43   -146664.27 
   27900    1102.5658   -43.802988      2204118          147  0.007193656   -149324.96   -146715.45 
   28000    1089.5828    109.25528      2204118          147  0.007193656   -149353.13   -146774.35 
   28100    1073.4648    50.038848      2204118          147  0.007193656   -149248.34    -146707.7 
   28200    1084.6499    -153.6701      2204118          147  0.007193656   -149090.91    -146523.8 
   28300    1102.2392    146.30745      2204118          147  0.007193656   -149085.81   -146477.07 
   28400    1062.6602   -28.871221      2204118          147  0.007193656   -149026.42   -146511.36 
   28500     1108.248   -61.161309      2204118          147  0.007193656   -149300.02   -146677.06 
   28600    1022.1208   -77.449389      2204118          147  0.007193656   -149202.82   -146783.71 
   28700     1090.657    23.071812      2204118          147  0.007193656   -149307.37   -146726.05 
   28800    1089.8613    45.562792      2204118          147  0.007193656    -149208.3   -146628.85 
   28900    1075.9969    22.649239      2204118          147  0.007193656   -149108.71   -146562.08 
   29000    1099.2724   -87.684947      2204118          147  0.007193656   -149051.93   -146450.22 
   29100    1192.6838   -158.09043      2204118          147  0.007193656   -149076.17   -146253.37 
   29200     1100.216   -91.504955      2204118          147  0.007193656   -148940.83   -146336.88 
   29300    1103.6096   -47.778242      2204118          147  0.007193656   -149105.69    -146493.7 
   29400    1087.5805    95.700832      2204118          147  0.007193656   -149153.23   -146579.18 
   29500    1100.7905   -5.8522551      2204118          147  0.007193656   -149271.18   -146665.87 
   29600    1072.1126   -66.310596      2204118          147  0.007193656    -149245.5   -146708.07 
   29700    1090.5881   -65.782933      2204118          147  0.007193656   -149230.03   -146648.87 
   29800    1218.4319   -12.544934      2204118          147  0.007193656   -149337.84    -146454.1 
   29900      1130.59    76.260123      2204118          147  0.007193656   -149120.07   -146444.23 
   30000    1142.0547    140.67489      2204118          147  0.007193656   -149268.05   -146565.08 
   30100    1064.7053     -39.6979      2204118          147  0.007193656   -149178.22   -146658.31 
   30200    1085.4503   -156.86931      2204118          147  0.007193656   -149215.34   -146646.34 
   30300    1111.0055   -40.858589      2204118          147  0.007193656   -149234.37   -146604.88 
   30400    1093.2698   -63.721564      2204118          147  0.007193656   -149111.87   -146524.36 
   30500    1211.4391    0.6482374      2204118          147  0.007193656   -149224.44   -146357.25 
   30600    1119.3089    81.779944      2204118          147  0.007193656   -149022.98   -146373.85 
   30700    1119.2417   -41.885477      2204118          147  0.007193656   -149219.89   -146570.91 
   30800    1112.5393   -64.871859      2204118          147  0.007193656   -149279.57   -146646.45 
   30900    1058.6103   -117.64909      2204118          147  0.007193656   -149153.22   -146647.74 
   31000    1091.2658   -111.16395      2204118          147  0.007193656   -149144.18   -146561.41 
   31100    1137.2533    141.00418      2204118          147  0.007193656   -149076.97   -146385.36 
   31200    1142.8885    117.40996      2204118          147  0.007193656   -149125.95   -146421.01 
   31300    1091.2633   -146.62374      2204118          147  0.007193656   -149090.71   -146507.95 
   31400    1060.4849   -146.52499      2204118          147  0.007193656   -149070.87   -146560.96 
   31500    1105.3091    143.22581      2204118          147  0.007193656   -149217.74   -146601.74 
   31600    1081.0933   -68.568865      2204118          147  0.007193656   -149212.48   -146653.79 
   31700    1056.1144    68.313556      2204118          147  0.007193656   -149266.34   -146766.77 
   31800    1064.5839   -37.051173      2204118          147  0.007193656   -149394.38   -146874.76 
   31900    1073.7857    108.18756      2204118          147  0.007193656   -149308.98   -146767.59 
   32000    1114.7706    29.916934      2204118          147  0.007193656   -149234.55   -146596.15 
   32100    1147.9531    40.543618      2204118          147  0.007193656   -149283.37   -146566.44 
   32200    1150.0326   -27.099057      2204118          147  0.007193656   -149279.87   -146558.01 
   32300    1112.4943    13.505356      2204118          147  0.007193656   -149270.86   -146637.85 
   32400    1055.2055    27.161589      2204118          147  0.007193656   -149252.66   -146755.24 
   32500    1096.2275   -30.270747      2204118          147  0.007193656   -149312.67   -146718.16 
   32600    1082.3277   -109.04748      2204118          147  0.007193656   -149076.25   -146514.64 
   32700    1132.8411    5.3040596      2204118          147  0.007193656   -149118.92   -146437.75 
   32800      1132.09   -1.9530273      2204118          147  0.007193656   -149197.09    -146517.7 
   32900     1027.229    11.997982      2204118          147  0.007193656   -149101.43   -146670.22 
   33000    1082.9781    115.79813      2204118          147  0.007193656   -149261.51   -146698.36 
   33100    1139.1533    51.471366      2204118          147  0.007193656   -149377.74   -146681.63 
   33200    1116.9917    29.470788      2204118          147  0.007193656   -149185.31   -146541.66 
   33300    1127.3269   -110.35719      2204118          147  0.007193656   -149033.37   -146365.25 
   33400       1154.1   -111.53077      2204118          147  0.007193656   -149129.15   -146397.67 
   33500    1186.5208    51.859276      2204118          147  0.007193656   -149285.67   -146477.46 
   33600    1144.1418    2.1035268      2204118          147  0.007193656   -149249.56   -146541.64 
   33700    1076.1093    138.59451      2204118          147  0.007193656   -149169.55   -146622.66 
   33800    1042.9885    90.701526      2204118          147  0.007193656   -149175.63   -146707.12 
   33900    1060.4857   -168.97994      2204118          147  0.007193656   -149245.52    -146735.6 
   34000    1140.6296    26.047478      2204118          147  0.007193656   -149237.66   -146538.06 
   34100    1093.8376    29.796272      2204118          147  0.007193656   -149040.02   -146451.16 
   34200    1150.6309    121.43452      2204118          147  0.007193656   -149222.02   -146498.74 
   34300    1073.1513    199.96442      2204118          147  0.007193656   -149188.09    -146648.2 
   34400    1099.0128   -173.36473      2204118          147  0.007193656   -149262.65   -146661.54 
   34500    1064.7189    -82.16977      2204118          147  0.007193656   -149170.82   -146650.89 
   34600    1130.6822    128.98279      2204118          147  0.007193656   -149254.38   -146578.33 
   34700    1109.8831     17.36732      2204118          147  0.007193656   -148973.03    -146346.2 
   34800    1158.6922   -135.13398      2204118          147  0.007193656   -149061.12   -146318.77 
   34900    1119.8829   -103.51123      2204118          147  0.007193656   -149095.12   -146444.62 
   35000    1148.9689   -30.030105      2204118          147  0.007193656   -149259.44    -146540.1 
   35100    1098.6905    124.54238      2204118          147  0.007193656   -149252.02   -146651.68 
   35200    1108.4819    130.60338      2204118          147  0.007193656   -149312.36   -146688.84 
   35300    1083.2606   -66.102719      2204118          147  0.007193656   -149240.87   -146677.05 
   35400    1151.3674    17.983004      2204118          147  0.007193656   -149170.47   -146445.46 
   35500    1151.5093    12.489628      2204118          147  0.007193656   -149101.35      -146376 
   35600    1060.6361   -56.247297      2204118          147  0.007193656   -149029.46   -146519.19 
   35700    1114.2551   -11.042354      2204118          147  0.007193656   -149263.77   -146626.59 
   35800    1035.2989   -16.624312      2204118          147  0.007193656   -149119.82   -146669.52 
   35900    1071.0716    2.1328633      2204118          147  0.007193656   -149223.42   -146688.45 
   36000     1103.481    49.717083      2204118          147  0.007193656   -149168.03   -146556.35 
   36100    1119.6291    104.66608      2204118          147  0.007193656   -149077.26   -146427.37 
   36200    1101.5178    37.694084      2204118          147  0.007193656   -149026.83    -146419.8 
   36300    1117.3515      46.2809      2204118          147  0.007193656   -149232.14   -146587.63 
   36400    1053.0348    -67.00678      2204118          147  0.007193656   -149153.76   -146661.48 
   36500    1027.5006   -29.473565      2204118          147  0.007193656   -149060.13   -146628.28 
   36600    1128.1022   -128.17163      2204118          147  0.007193656   -149236.03   -146566.07 
   36700     1175.107    84.807651      2204118          147  0.007193656   -149251.88   -146470.68 
   36800    1138.4011    148.15296      2204118          147  0.007193656   -149164.35   -146470.02 
   36900    1130.7534    17.805727      2204118          147  0.007193656   -149290.23      -146614 
   37000    1115.9196   -119.83708      2204118          147  0.007193656   -149346.27   -146705.15 
   37100    1049.6858   -150.62099      2204118          147  0.007193656   -149194.12   -146709.77 
   37200    1170.0533   -91.461668      2204118          147  0.007193656   -149327.23   -146557.99 
   37300    1163.9163    172.79273      2204118          147  0.007193656   -149213.71      -146459 
   37400    1144.8875    157.44915      2204118          147  0.007193656   -149229.28    -146519.6 
   37500    1115.1879    217.16098      2204118          147  0.007193656   -149221.14   -146581.75 
   37600    1067.3384    22.527266      2204118          147  0.007193656    -149172.3   -146646.16 
   37700    1107.9137    -70.56242      2204118          147  0.007193656   -149273.74   -146651.57 
   37800    1107.8128    81.764217      2204118          147  0.007193656   -149257.38   -146635.45 
   37900    1115.9983    47.303609      2204118          147  0.007193656   -149219.64   -146578.33 
   38000    1173.9936   -130.26267      2204118          147  0.007193656   -149281.77   -146503.21 
   38100    1111.5649   -26.699522      2204118          147  0.007193656   -149128.45   -146497.64 
   38200    1093.0868   -162.38451      2204118          147  0.007193656   -149250.91   -146663.83 
   38300    1101.1226    -105.4866      2204118          147  0.007193656   -149313.01   -146706.91 
   38400    1132.2478    71.959708      2204118          147  0.007193656    -149330.8   -146651.04 
   38500    1053.3418    161.16923      2204118          147  0.007193656   -149076.24   -146583.23 
   38600    1098.7424    47.831802      2204118          147  0.007193656   -148983.52   -146383.06 
   38700    1145.7697   -53.431447      2204118          147  0.007193656    -149030.4   -146318.63 
   38800    1109.3773   -194.85671      2204118          147  0.007193656   -149089.18   -146463.55 
   38900    1107.2587     109.1445      2204118          147  0.007193656   -149178.89   -146558.27 
   39000    1074.5734    140.40182      2204118          147  0.007193656   -149186.34   -146643.07 
   39100    1122.3119    129.29168      2204118          147  0.007193656    -149322.4   -146666.16 
   39200    1092.4727    8.9408719      2204118          147  0.007193656   -149247.58   -146661.95 
   39300    1151.3757   -234.41081      2204118          147  0.007193656   -149294.15   -146569.12 
   39400    1092.9118   -228.06878      2204118          147  0.007193656   -149029.02   -146442.35 
   39500    1185.8929    119.80713      2204118          147  0.007193656   -149216.42   -146409.69 
   39600    1102.6779    5.6586404      2204118          147  0.007193656   -149188.04   -146578.26 
   39700    1074.9801   -13.677834      2204118          147  0.007193656   -149213.47   -146669.25 
   39800    1105.6684   -256.12466      2204118          147  0.007193656   -149282.06   -146665.21 
   39900    1078.1544    122.38857      2204118          147  0.007193656   -149166.47   -146614.73 
   40000    1131.2116    54.734596      2204118          147  0.007193656   -149180.52   -146503.21 
   40100    1148.7105    143.44666      2204118          147  0.007193656    -149073.6   -146354.88 
   40200    1175.6515    133.10218      2204118          147  0.007193656      -149129   -146346.51 
   40300    1138.0854   -104.41292      2204118          147  0.007193656   -149248.51   -146554.93 
   40400    1114.3479   -24.110797      2204118          147  0.007193656   -149269.01   -146631.62 
   40500    1057.1756    57.875035      2204118          147  0.007193656   -149178.93   -146676.84 
   40600    1140.9847   -177.77004      2204118          147  0.007193656   -149328.94    -146628.5 
   40700    1141.2039    63.335172      2204118          147  0.007193656   -149182.52   -146481.57 
   40800    1126.2084   -18.213595      2204118          147  0.007193656   -149087.09   -146421.63 
   40900    1109.9103   -109.73606      2204118          147  0.007193656   -149177.76   -146550.87 
   41000    1047.8456    69.099992      2204118          147  0.007193656   -149212.41   -146732.41 
   41100    1128.2199    100.99751      2204118          147  0.007193656   -149366.47   -146696.24 
   41200    1115.9585   -15.801246      2204118          147  0.007193656   -149237.48   -146596.27 
   41300    1166.9835    83.229477      2204118          147  0.007193656   -149249.75   -146487.78 
   41400    1103.3292    210.92242      2204118          147  0.007193656   -149068.69   -146457.37 
   41500    1079.0765    106.18444      2204118          147  0.007193656   -149195.42   -146641.51 
   41600    1054.1954    -1.721122      2204118          147  0.007193656   -149252.54   -146757.51 
   41700    1079.7128   -56.047894      2204118          147  0.007193656    -149291.8   -146736.38 
   41800    1082.8557   -16.507397      2204118          147  0.007193656   -149153.82   -146590.96 
   41900     1077.423    9.5816851      2204118          147  0.007193656   -149059.51   -146509.51 
   42000    1178.5454   -92.027826      2204118          147  0.007193656   -149313.93   -146524.59 
   42100    1050.1551    77.880236      2204118          147  0.007193656   -149246.75   -146761.28 
   42200     1065.682    32.730557      2204118          147  0.007193656   -149323.18   -146800.96 
   42300    1114.5097   -24.575759      2204118          147  0.007193656   -149351.99   -146714.21 
   42400    1060.4889    52.775723      2204118          147  0.007193656   -149092.71   -146582.79 
   42500    1126.2088   -262.55673      2204118          147  0.007193656   -149207.18   -146541.71 
   42600    1085.4654     189.4589      2204118          147  0.007193656   -149169.44   -146600.41 
   42700    1126.6919   -119.23045      2204118          147  0.007193656   -149327.57   -146660.96 
   42800    1100.2942     47.68926      2204118          147  0.007193656   -149277.81   -146673.67 
   42900    1120.0695   -76.275824      2204118          147  0.007193656   -149290.76   -146639.83 
   43000    1080.2373   -88.806465      2204118          147  0.007193656   -149178.98   -146622.31 
   43100     1080.236   -75.568992      2204118          147  0.007193656   -149207.98   -146651.31 
   43200    1086.7964    127.04186      2204118          147  0.007193656   -149290.85   -146718.66 
   43300    1052.3082   -68.297519      2204118          147  0.007193656   -149296.34   -146805.78 
   43400    1073.9446   -104.57322      2204118          147  0.007193656   -149351.21   -146809.44 
   43500    1112.9077    63.845338      2204118          147  0.007193656   -149239.23   -146605.24 
   43600    1097.5993   -98.356701      2204118          147  0.007193656   -149120.12   -146522.36 
   43700    1137.9322    204.75509      2204118          147  0.007193656   -149240.86   -146547.64 
   43800    1078.1382    64.617305      2204118          147  0.007193656   -149241.27   -146689.58 
   43900    1066.1465   -71.205866      2204118          147  0.007193656   -149263.49   -146740.17 
   44000    1114.0472    125.47006      2204118          147  0.007193656   -149328.84   -146692.16 
   44100    1070.4959    24.124721      2204118          147  0.007193656   -149171.95   -146638.34 
   44200     1135.243     110.2453      2204118          147  0.007193656   -149221.65    -146534.8 
   44300    1100.8668    -167.2418      2204118          147  0.007193656   -148956.56   -146351.07 
   44400    1145.6107    -69.64276      2204118          147  0.007193656   -148962.07   -146250.68 
   44500    1094.7641    92.252137      2204118          147  0.007193656   -149036.94    -146445.9 
   44600    1156.6566    3.0392798      2204118          147  0.007193656   -149264.02   -146526.49 
   44700    1099.7955    110.42206      2204118          147  0.007193656    -149194.6   -146591.64 
   44800     1091.238    45.610607      2204118          147  0.007193656   -149292.95   -146710.25 
   44900    1012.4611   -47.671318      2204118          147  0.007193656   -149164.13   -146767.87 
   45000    1104.5729   -11.972374      2204118          147  0.007193656   -149317.66   -146703.39 
   45100    1123.9384   -155.51935      2204118          147  0.007193656    -149161.2    -146501.1 
   45200    1128.6327   -169.26682      2204118          147  0.007193656   -149158.19   -146486.98 
   45300    1084.8735   -110.98538      2204118          147  0.007193656   -149165.31   -146597.67 
   45400    1092.8677   -60.359194      2204118          147  0.007193656   -149255.14   -146668.58 
   45500    1087.1241    106.23322      2204118          147  0.007193656   -149264.09   -146691.12 
   45600    1090.2672    57.526503      2204118          147  0.007193656   -149249.54   -146669.13 
   45700    1167.9648   -3.4000179      2204118          147  0.007193656   -149188.57   -146424.27 
   45800    1119.2976    91.317361      2204118          147  0.007193656   -149045.88   -146396.77 
   45900    1130.8406    26.058843      2204118          147  0.007193656   -149214.34   -146537.91 
   46000    1096.0035   -24.205617      2204118          147  0.007193656   -149247.22   -146653.24 
   46100    1123.7316    29.332644      2204118          147  0.007193656   -149316.14   -146656.54 
   46200     1125.248    23.481312      2204118          147  0.007193656   -149307.36   -146644.17 
   46300    1104.9336     57.14946      2204118          147  0.007193656   -149279.11   -146663.99 
   46400    1138.5489    -157.0764      2204118          147  0.007193656   -149344.84   -146650.17 
   46500    1067.9479    21.013216      2204118          147  0.007193656   -149150.47   -146622.89 
   46600     1081.974    112.10577      2204118          147  0.007193656   -149191.54   -146630.76 
   46700    1101.6082   -84.438253      2204118          147  0.007193656   -149303.63   -146696.38 
   46800    1082.2354   -187.21947      2204118          147  0.007193656   -149338.08   -146776.69 
   46900    1069.2005   -74.725247      2204118          147  0.007193656   -149316.18   -146785.63 
   47000    1159.9102   -84.553697      2204118          147  0.007193656   -149372.86   -146627.62 
   47100    1093.1455    335.01398      2204118          147  0.007193656   -149115.82    -146528.6 
   47200    1110.7903   -17.923548      2204118          147  0.007193656   -149159.28    -146530.3 
   47300    1026.6191    142.07436      2204118          147  0.007193656   -149129.95   -146700.19 
   47400    1059.9479   -9.6342278      2204118          147  0.007193656   -149327.73   -146819.08 
   47500    1053.2454    99.690775      2204118          147  0.007193656   -149244.25   -146751.47 
   47600    1092.7349    49.245872      2204118          147  0.007193656   -149215.39   -146629.15 
   47700    1068.5795   -165.96131      2204118          147  0.007193656   -149083.59   -146554.51 
   47800     1130.879   -48.806828      2204118          147  0.007193656   -149224.65   -146548.12 
   47900    1084.1796    137.61539      2204118          147  0.007193656   -149156.61   -146590.62 
   48000    1143.0805   -66.863092      2204118          147  0.007193656   -149317.39   -146611.99 
   48100    1128.9892    92.963998      2204118          147  0.007193656   -149304.61   -146632.56 
   48200    1072.4533   -29.262659      2204118          147  0.007193656   -149176.14    -146637.9 
   48300     1144.889   -73.069028      2204118          147  0.007193656    -149312.3   -146602.62 
   48400    1108.2295   -60.166143      2204118          147  0.007193656    -149220.7   -146597.79 
   48500    1129.2294    73.199935      2204118          147  0.007193656   -149274.67   -146602.05 
   48600    1138.0304   -55.446521      2204118          147  0.007193656   -149298.66   -146605.21 
   48700    1113.2105   -78.721784      2204118          147  0.007193656   -149233.61    -146598.9 
   48800    1112.7946    35.975642      2204118          147  0.007193656   -149277.67   -146643.95 
   48900    1089.0932     48.96125      2204118          147  0.007193656   -149335.49   -146757.87 
   49000    1065.3382    1.7541106      2204118          147  0.007193656   -149311.69   -146790.28 
   49100    1083.4522   -83.625966      2204118          147  0.007193656   -149159.56   -146595.28 
   49200    1151.9068   -57.607606      2204118          147  0.007193656   -149202.47   -146476.18 
   49300    1131.2858    121.02952      2204118          147  0.007193656   -149222.02   -146544.53 
   49400    1048.7072    91.628594      2204118          147  0.007193656   -149154.14    -146672.1 
   49500    1071.7894    50.217839      2204118          147  0.007193656   -149219.73   -146683.05 
   49600    1084.1533   -15.719581      2204118          147  0.007193656   -149187.71   -146621.78 
   49700     1078.638   -67.041939      2204118          147  0.007193656   -148958.97   -146406.08 
   49800    1199.8685    10.050296      2204118          147  0.007193656   -149165.83   -146326.02 
   49900    1172.8469    -34.46084      2204118          147  0.007193656   -149241.34   -146465.48 
   50000    1091.0918   -115.91628      2204118          147  0.007193656   -149172.78   -146590.43 
   50100    1096.6275    -171.2821      2204118          147  0.007193656   -149267.35   -146671.89 
   50200    1078.0176   -100.18983      2204118          147  0.007193656   -149184.12   -146632.71 
   50300    1103.6239    26.881215      2204118          147  0.007193656   -149109.37   -146497.36 
   50400    1108.6553    13.335428      2204118          147  0.007193656    -148999.2   -146375.27 
   50500    1122.4084    49.416335      2204118          147  0.007193656   -149141.59   -146485.12 
   50600    1130.3806    53.825847      2204118          147  0.007193656   -149335.73   -146660.38 
   50700     1113.161   -12.794884      2204118          147  0.007193656   -149300.89    -146666.3 
   50800    1094.4064   -10.358859      2204118          147  0.007193656   -149215.32   -146625.12 
   50900    1082.6338   -8.0895377      2204118          147  0.007193656   -149094.03   -146531.69 
   51000    1134.8267     48.60168      2204118          147  0.007193656   -149122.01   -146436.15 
   51100    1103.5964   -60.997679      2204118          147  0.007193656   -149085.25    -146473.3 
   51200    1098.3892   -57.537665      2204118          147  0.007193656   -149271.86   -146672.24 
   51300     1103.336   -107.50437      2204118          147  0.007193656   -149311.36   -146700.03 
   51400    1089.6375    -11.15173      2204118          147  0.007193656   -149204.15   -146625.23 
   51500    1120.0701   -6.4587137      2204118          147  0.007193656   -149147.62   -146496.68 
   51600    1121.7282   -180.16936      2204118          147  0.007193656   -149008.26   -146353.39 
   51700    1192.9438   -55.984815      2204118          147  0.007193656    -149049.9   -146226.48 
   51800    1162.6648    104.17685      2204118          147  0.007193656   -149097.78   -146346.02 
   51900    1175.2275    90.267162      2204118          147  0.007193656   -149317.21   -146535.72 
   52000    1126.6904    174.98929      2204118          147  0.007193656   -149295.88   -146629.27 
   52100     1093.051   -145.59935      2204118          147  0.007193656    -149244.9   -146657.91 
   52200    1076.3415   -106.88938      2204118          147  0.007193656   -149209.84    -146662.4 
   52300    1128.6922   -138.31282      2204118          147  0.007193656   -149232.96   -146561.62 
   52400     1132.531    11.737811      2204118          147  0.007193656   -149115.55   -146435.11 
   52500    1102.4239    111.42991      2204118          147  0.007193656   -149015.32   -146406.14 
   52600    1100.9727   -109.87281      2204118          147  0.007193656   -149221.89   -146616.15 
   52700    1074.4663   -111.79966      2204118          147  0.007193656    -149261.5   -146718.49 
   52800    1119.8635   -69.301236      2204118          147  0.007193656      -149323   -146672.55 
   52900    1085.9842    128.78245      2204118          147  0.007193656   -149116.12   -146545.85 
   53000     1170.415       279.94      2204118          147  0.007193656   -149231.31   -146461.21 
   53100     1097.383    82.061555      2204118          147  0.007193656   -149103.68   -146506.43 
   53200    1121.2598   -127.23958      2204118          147  0.007193656   -149184.11   -146530.36 
   53300    1100.9345   -27.106323      2204118          147  0.007193656   -149147.35    -146541.7 
   53400    1117.4171    121.57865      2204118          147  0.007193656   -149218.43   -146573.77 
   53500    1063.9314    71.152368      2204118          147  0.007193656   -149223.59   -146705.51 
   53600    1058.2522    114.76112      2204118          147  0.007193656   -149253.04   -146748.41 
   53700    1081.0816     58.14822      2204118          147  0.007193656   -149213.82   -146655.15 
   53800    1031.0993   -131.96271      2204118          147  0.007193656   -149016.39   -146576.02 
   53900    1111.4515   -121.64179      2204118          147  0.007193656   -149169.08   -146538.54 
   54000     1172.388    25.574943      2204118          147  0.007193656   -149285.48   -146510.71 
   54100    1128.2787    221.69937      2204118          147  0.007193656   -149255.91   -146585.54 
   54200    1064.2105    215.35405      2204118          147  0.007193656   -149246.93   -146728.19 
   54300    1065.5219    41.327869      2204118          147  0.007193656   -149247.48   -146725.64 
   54400    1112.1384   -206.19666      2204118          147  0.007193656   -149266.87   -146634.71 
   54500    1135.7015    -151.4074      2204118          147  0.007193656   -149107.63   -146419.69 
   54600    1158.8835    1.6127542      2204118          147  0.007193656   -149208.02   -146465.22 
   54700    1078.2999   -24.167944      2204118          147  0.007193656   -149132.86   -146580.78 
   54800    1113.5979    275.82499      2204118          147  0.007193656   -149287.23    -146651.6 
   54900     1109.674   -263.62345      2204118          147  0.007193656   -149296.85   -146670.52 
   55000    1093.9057    4.2736708      2204118          147  0.007193656   -149131.39   -146542.37 
   55100    1165.3828     11.07189      2204118          147  0.007193656   -149128.75   -146370.57 
   55200    1126.0582    222.61041      2204118          147  0.007193656   -149106.86   -146441.75 
   55300    1123.1119    183.42963      2204118          147  0.007193656   -149202.78   -146544.64 
   55400    1105.2465    2.4866604      2204118          147  0.007193656   -149232.28   -146616.43 
   55500    1109.7548   -34.309889      2204118          147  0.007193656   -149280.52   -146653.99 
   55600    1097.2876   -191.71045      2204118          147  0.007193656   -149251.98   -146654.96 
   55700    1115.1791    77.150784      2204118          147  0.007193656   -149314.01   -146674.65 
   55800    1043.2962    168.40466      2204118          147  0.007193656   -149162.35   -146693.11 
   55900    1060.6316    24.706756      2204118          147  0.007193656   -149136.41   -146626.15 
   56000    1116.9453   -42.656739      2204118          147  0.007193656   -149180.61   -146537.06 
   56100    1105.6319   -205.37207      2204118          147  0.007193656    -149056.6   -146439.83 
   56200    1143.7555    121.16099      2204118          147  0.007193656   -149179.96   -146472.96 
   56300    1045.3954   -97.877228      2204118          147  0.007193656   -149172.94   -146698.73 
   56400    1068.6002    87.144992      2204118          147  0.007193656   -149243.71   -146714.58 
   56500    1102.4807    16.735195      2204118          147  0.007193656   -149249.09   -146639.78 
   56600     1106.561   -10.077444      2204118          147  0.007193656   -149113.43   -146494.46 
   56700    1123.0894    174.95791      2204118          147  0.007193656    -149073.1   -146415.01 
   56800    1144.2802    49.546854      2204118          147  0.007193656   -149189.56   -146481.32 
   56900    1096.4149    32.774908      2204118          147  0.007193656   -149137.61   -146542.66 
   57000    1111.9408   -150.35422      2204118          147  0.007193656   -149244.45   -146612.75 
   57100    1136.4791    8.2424118      2204118          147  0.007193656   -149340.19   -146650.41 
   57200    1087.1108   -49.136015      2204118          147  0.007193656   -149191.56   -146618.63 
   57300    1149.9997    49.237017      2204118          147  0.007193656   -149169.29   -146447.51 
   57400    1180.8443    326.20122      2204118          147  0.007193656   -149205.16   -146410.38 
   57500    1103.3202   -83.488416      2204118          147  0.007193656   -149177.08   -146565.79 
   57600    1110.7955   -4.0421964      2204118          147  0.007193656   -149248.58   -146619.59 
   57700     1060.753   -127.88254      2204118          147  0.007193656   -149142.25    -146631.7 
   57800     1114.394    201.53637      2204118          147  0.007193656   -149215.37   -146577.86 
   57900    1135.6751    66.338022      2204118          147  0.007193656   -149151.48    -146463.6 
   58000    1166.3504    72.181564      2204118          147  0.007193656   -149083.66   -146323.18 
   58100    1136.3511   -124.59951      2204118          147  0.007193656    -149142.5   -146453.03 
   58200    1110.6435   -116.10855      2204118          147  0.007193656   -149211.82   -146583.19 
   58300    1148.2107    23.355386      2204118          147  0.007193656   -149310.23   -146592.69 
   58400    1075.1444   -10.532762      2204118          147  0.007193656   -149124.89   -146580.28 
   58500    1143.6705    -128.6841      2204118          147  0.007193656   -149311.34   -146604.54 
   58600    1045.9918   -91.571353      2204118          147  0.007193656    -149205.9   -146730.29 
   58700    1064.4897    15.999327      2204118          147  0.007193656   -149267.33   -146747.93 
   58800    1096.2024    16.984633      2204118          147  0.007193656   -149145.67   -146551.22 
   58900    1128.7913    4.3324248      2204118          147  0.007193656   -149167.28    -146495.7 
   59000     1086.027    116.16683      2204118          147  0.007193656   -149125.59   -146555.22 
   59100    1113.3755    102.69087      2204118          147  0.007193656   -149251.42   -146616.32 
   59200    1050.7575   -32.364743      2204118          147  0.007193656   -149192.64   -146705.74 
   59300    1084.8849   -23.760195      2204118          147  0.007193656   -149349.59   -146781.93 
   59400    1062.9988    109.58522      2204118          147  0.007193656   -149360.38   -146844.52 
   59500    1100.3027   -147.66137      2204118          147  0.007193656   -149289.71   -146685.55 
   59600    1122.8019   -149.49325      2204118          147  0.007193656   -149180.89   -146523.48 
   59700    1124.8867   -103.30072      2204118          147  0.007193656   -149179.07   -146516.73 
   59800    1117.9018    35.750517      2204118          147  0.007193656    -149232.5   -146586.69 
   59900    1070.2282    231.66894      2204118          147  0.007193656   -149283.32   -146750.35 
   60000    1063.8837    194.53298      2204118          147  0.007193656    -149301.8   -146783.84 
   60100    1071.4906   -131.18814      2204118          147  0.007193656   -149251.12   -146715.15 
   60200    1060.5976   -204.55658      2204118          147  0.007193656   -149156.05   -146645.87 
   60300    1087.9072   -90.201772      2204118          147  0.007193656   -149143.97   -146569.15 
   60400    1164.4631    13.709104      2204118          147  0.007193656   -149245.99   -146489.98 
   60500    1071.7429    138.16915      2204118          147  0.007193656   -149173.08   -146636.52 
   60600    1090.7533   -45.854667      2204118          147  0.007193656    -149361.8   -146780.24 
   60700    1111.0425   -18.449131      2204118          147  0.007193656   -149322.33   -146692.75 
   60800    1137.5009   -92.667113      2204118          147  0.007193656   -149264.08   -146571.88 
   60900    1111.6865    141.86072      2204118          147  0.007193656   -149110.82   -146479.72 
   61000    1096.8127   -94.281199      2204118          147  0.007193656   -149089.07   -146493.18 
   61100    1122.4533   -14.376261      2204118          147  0.007193656   -149255.65   -146599.07 
   61200    1056.7565    56.173108      2204118          147  0.007193656   -149252.51   -146751.42 
   61300    1085.8427   -66.309123      2204118          147  0.007193656   -149296.18   -146726.25 
   61400    1133.7972    95.930533      2204118          147  0.007193656   -149291.07   -146607.64 
   61500    1099.3806    43.530176      2204118          147  0.007193656   -149147.58   -146545.61 
   61600    1131.4134   -57.590718      2204118          147  0.007193656    -149148.6   -146470.81 
   61700    1060.0344   -15.216476      2204118          147  0.007193656   -149069.65    -146560.8 
   61800    1084.3408    -121.2258      2204118          147  0.007193656   -149269.84   -146703.46 
   61900    1017.3501    107.46548      2204118          147  0.007193656   -149117.36   -146709.53 
   62000    1132.6023   -9.1927327      2204118          147  0.007193656   -149288.01   -146607.41 
   62100    1073.0134    123.61753      2204118          147  0.007193656   -149113.95   -146574.38 
   62200    1107.7999    18.195183      2204118          147  0.007193656    -149187.5    -146565.6 
   62300    1077.2397   -30.222689      2204118          147  0.007193656   -149141.77    -146592.2 
   62400    1052.4627    39.603978      2204118          147  0.007193656   -149144.43    -146653.5 
   62500    1032.0364   -74.614673      2204118          147  0.007193656   -149182.89    -146740.3 
   62600     1052.217    -74.78484      2204118          147  0.007193656   -149256.71   -146766.36 
   62700    1117.9233    172.99116      2204118          147  0.007193656   -149261.27   -146615.41 
   62800    1137.8899   -42.811761      2204118          147  0.007193656   -149193.04   -146499.92 
   62900    1137.9594    105.19268      2204118          147  0.007193656   -149181.06   -146487.78 
   63000    1109.4995   -6.8760402      2204118          147  0.007193656   -149216.39   -146590.47 
   63100    1108.0282    171.98521      2204118          147  0.007193656   -149375.45   -146753.01 
   63200    1055.4609   -99.430935      2204118          147  0.007193656   -149290.99   -146792.97 
   63300     1074.373   -65.772691      2204118          147  0.007193656   -149265.78   -146722.99 
   63400    1059.7892    29.664055      2204118          147  0.007193656   -149105.02   -146596.75 
   63500    1132.6327   -150.49545      2204118          147  0.007193656   -149185.55   -146504.88 
   63600    1110.3591    114.09843      2204118          147  0.007193656   -149144.76    -146516.8 
   63700    1098.7521    193.34076      2204118          147  0.007193656   -149294.66   -146694.18 
   63800    1007.3186   -29.992372      2204118          147  0.007193656   -149178.57   -146794.49 
   63900    1059.9362    66.718096      2204118          147  0.007193656    -149215.1   -146706.48 
   64000    1132.7381   -74.460127      2204118          147  0.007193656   -149305.92   -146624.99 
   64100    1079.5778   -93.150946      2204118          147  0.007193656      -149108    -146552.9 
   64200    1127.4353    -40.71783      2204118          147  0.007193656   -149151.81   -146483.44 
   64300    1133.7457    64.143516      2204118          147  0.007193656   -149158.45   -146475.14 
   64400    1057.2314   -25.670798      2204118          147  0.007193656   -149217.58   -146715.36 
   64500    1074.5795    38.656896      2204118          147  0.007193656   -149286.73   -146743.45 
   64600    1157.2398   -58.594034      2204118          147  0.007193656   -149357.29   -146618.37 
   64700    1086.0406    114.25604      2204118          147  0.007193656   -149060.48   -146490.08 
   64800    1071.5764   -69.985468      2204118          147  0.007193656   -149037.02   -146500.85 
   64900    1134.8204    27.187953      2204118          147  0.007193656   -149320.08   -146634.23 
   65000    1041.2126     106.9017      2204118          147  0.007193656   -149213.55   -146749.24 
   65100    1094.9102   -81.562371      2204118          147  0.007193656   -149289.04   -146697.65 
   65200    1076.0415    33.414957      2204118          147  0.007193656   -149171.12   -146624.39 
   65300     1111.231    1.0736002      2204118          147  0.007193656   -149165.36   -146535.34 
   65400     1144.304    57.200295      2204118          147  0.007193656   -149158.26   -146449.96 
   65500    1163.3613   -46.155639      2204118          147  0.007193656   -149120.28   -146366.88 
   65600    1153.5489   -117.99665      2204118          147  0.007193656   -149193.85   -146463.68 
   65700    1104.6773   -174.05985      2204118          147  0.007193656   -149210.44   -146595.93 
   65800    1121.0441   -2.8468666      2204118          147  0.007193656      -149316   -146662.76 
   65900    1071.4305    22.942496      2204118          147  0.007193656   -149214.85   -146679.03 
   66000    1119.6711    134.94399      2204118          147  0.007193656   -149222.66   -146572.67 
   66100    1119.3727     207.7202      2204118          147  0.007193656   -149057.13   -146407.84 
   66200    1158.9872   -64.324178      2204118          147  0.007193656   -149186.84   -146443.79 
   66300    1069.1701   -80.795661      2204118          147  0.007193656   -149114.99   -146584.52 
   66400    1105.9252    39.622223      2204118          147  0.007193656   -149239.53   -146622.07 
   66500    1104.4208   -26.187288      2204118          147  0.007193656    -149231.8    -146617.9 
   66600    1100.6833    9.5792144      2204118          147  0.007193656   -149211.47   -146606.41 
   66700    1089.5116     45.33726      2204118          147  0.007193656   -149097.22   -146518.61 
   66800    1096.8142   -130.49785      2204118          147  0.007193656   -148974.33   -146378.43 
   66900    1175.3155    35.203308      2204118          147  0.007193656   -149157.91   -146376.22 
   67000    1140.8546    1.5108589      2204118          147  0.007193656   -149267.84   -146567.71 
   67100    1062.2914    61.387474      2204118          147  0.007193656   -149165.01   -146650.81 
   67200    1076.6205   -57.466567      2204118          147  0.007193656   -149230.87   -146682.76 
   67300    1094.5355   -150.98075      2204118          147  0.007193656   -149218.67   -146628.16 
   67400    1116.3756   -43.447123      2204118          147  0.007193656   -149086.26   -146444.07 
   67500    1163.0601   -52.525529      2204118          147  0.007193656    -149176.9   -146424.21 
   67600    1087.1732    133.40254      2204118          147  0.007193656   -149094.35   -146521.27 
   67700    1095.2374    237.30556      2204118          147  0.007193656   -149188.05   -146595.88 
   67800     1078.987    39.981666      2204118          147  0.007193656   -149176.45   -146622.74 
   67900     1094.276   -124.45763      2204118          147  0.007193656   -149233.01   -146643.11 
   68000    1114.0298   -123.48554      2204118          147  0.007193656   -149220.17   -146583.53 
   68100    1146.2004   -246.93608      2204118          147  0.007193656   -149143.27   -146430.49 
   68200    1123.3141    11.752107      2204118          147  0.007193656   -149065.71   -146407.09 
   68300    1123.4074    85.955607      2204118          147  0.007193656   -149234.71   -146575.87 
   68400    1127.7335    101.67412      2204118          147  0.007193656   -149310.58    -146641.5 
   68500    1121.8505   0.97374076      2204118          147  0.007193656   -149293.69   -146638.53 
   68600    1099.6158    1.5457341      2204118          147  0.007193656   -149220.89   -146618.36 
   68700    1068.8606   -47.027152      2204118          147  0.007193656   -149096.34    -146566.6 
   68800    1112.4403    77.283496      2204118          147  0.007193656   -149131.85   -146498.97 
   68900    1125.3295   -63.239375      2204118          147  0.007193656    -149133.8   -146470.41 
   69000    1092.7792    77.872618      2204118          147  0.007193656   -149066.23   -146479.88 
   69100    1072.0854    30.813555      2204118          147  0.007193656    -149159.2   -146621.83 
   69200    1083.0119    12.518807      2204118          147  0.007193656   -149262.63   -146699.39 
   69300     1074.769    28.197785      2204118          147  0.007193656   -149186.11   -146642.38 
   69400    1032.5479    77.645964      2204118          147  0.007193656   -148999.62   -146555.83 
   69500    1125.3174     19.81919      2204118          147  0.007193656    -149095.3   -146431.94 
   69600    1209.1479   -72.672298      2204118          147  0.007193656   -149042.32   -146180.55 
   69700    1143.5665   -115.37555      2204118          147  0.007193656   -148987.68   -146281.13 
   69800    1129.7609    66.669254      2204118          147  0.007193656   -149116.23   -146442.35 
   69900    1158.2846    59.931828      2204118          147  0.007193656   -149314.41   -146573.02 
   70000     1119.169    58.783984      2204118          147  0.007193656    -149291.3   -146642.49 
   70100    1086.5064    60.853321      2204118          147  0.007193656   -149223.13   -146651.62 
   70200    1121.0342   -86.100122      2204118          147  0.007193656   -149164.78   -146511.56 
   70300    1147.6243   -32.035038      2204118          147  0.007193656   -149086.11   -146369.95 
   70400    1131.6107       1.4528      2204118          147  0.007193656    -149085.6   -146407.34 
   70500    1155.7493 -0.085869586      2204118          147  0.007193656   -149231.68    -146496.3 
   70600     1112.451   -43.267857      2204118          147  0.007193656   -149200.61   -146567.71 
   70700    1098.5785   -83.739848      2204118          147  0.007193656   -149230.98   -146630.91 
   70800    1118.7905    115.82704      2204118          147  0.007193656   -149289.65   -146641.73 
   70900    1101.2405    65.808613      2204118          147  0.007193656   -149202.02   -146595.64 
   71000    1108.0925    90.373255      2204118          147  0.007193656   -149116.88   -146494.29 
   71100    1112.6185    12.248338      2204118          147  0.007193656   -149085.15   -146451.84 
   71200    1142.7667    -33.70281      2204118          147  0.007193656   -149183.67   -146479.01 
   71300    1065.6797   -125.34857      2204118          147  0.007193656   -149165.54   -146643.33 
   71400    1085.8919   -47.865762      2204118          147  0.007193656    -149248.1   -146678.05 
   71500    1088.6189   -29.647076      2204118          147  0.007193656   -149187.97   -146611.47 
   71600    1065.1814    126.74974      2204118          147  0.007193656   -149052.94   -146531.91 
   71700    1163.7682    46.890075      2204118          147  0.007193656   -149119.17   -146364.81 
   71800    1083.0778    14.006099      2204118          147  0.007193656   -148838.53   -146275.14 
   71900    1112.2239    33.412183      2204118          147  0.007193656   -149091.47    -146459.1 
   72000    1103.6847    12.505952      2204118          147  0.007193656   -149169.01   -146556.85 
   72100     1087.393   -42.373644      2204118          147  0.007193656   -149166.93   -146593.33 
   72200     1160.185   -89.849307      2204118          147  0.007193656   -149402.59   -146656.71 
   72300    1002.0129    30.918725      2204118          147  0.007193656   -149128.87   -146757.35 
   72400    1105.8267    94.791455      2204118          147  0.007193656   -149365.29   -146748.06 
   72500     1135.931   -155.30214      2204118          147  0.007193656   -149247.53   -146559.05 
   72600    1077.1665    -201.3773      2204118          147  0.007193656   -149001.61   -146452.21 
   72700    1159.1748    38.760292      2204118          147  0.007193656   -149219.97   -146476.47 
   72800     1110.547    101.05603      2204118          147  0.007193656   -149261.38   -146632.97 
   72900    1112.6593   -3.3631692      2204118          147  0.007193656   -149338.89   -146705.49 
   73000    1102.7582   -93.562257      2204118          147  0.007193656   -149278.73   -146668.76 
   73100    1071.8674   -61.715501      2204118          147  0.007193656   -149115.01   -146578.16 
   73200    1076.3103    107.55625      2204118          147  0.007193656   -149054.33   -146506.96 
   73300    1107.9414    101.25484      2204118          147  0.007193656    -149157.1   -146534.86 
   73400    1091.5799    58.364815      2204118          147  0.007193656   -149372.63   -146789.12 
   73500    1011.3435   -21.430881      2204118          147  0.007193656   -149202.46   -146808.85 
   73600    1080.3359   -246.49323      2204118          147  0.007193656   -149216.45   -146659.55 
   73700     1158.753    39.213312      2204118          147  0.007193656   -149270.86   -146528.36 
   73800    1127.7198    19.990175      2204118          147  0.007193656   -149167.54    -146498.5 
   73900    1138.7813    84.651188      2204118          147  0.007193656      -149267   -146571.77 
   74000    1084.5498   -84.178373      2204118          147  0.007193656   -149324.33   -146757.46 
   74100    1046.3928   -178.03442      2204118          147  0.007193656   -149238.77   -146762.21 
   74200    1155.5726   -92.200186      2204118          147  0.007193656   -149391.77    -146656.8 
   74300    1134.9429    205.77705      2204118          147  0.007193656   -149260.96   -146574.82 
   74400    1086.7198    2.2963171      2204118          147  0.007193656   -149138.94   -146566.93 
   74500     1067.452    33.222665      2204118          147  0.007193656   -149178.13   -146651.73 
   74600     1007.912   -129.00829      2204118          147  0.007193656   -149241.14   -146855.65 
   74700    1060.9833    31.968138      2204118          147  0.007193656   -149332.35   -146821.26 
   74800    1114.2769   -98.378574      2204118          147  0.007193656   -149299.13   -146661.91 
   74900    1055.7282    121.76745      2204118          147  0.007193656    -149096.5   -146597.84 
   75000    1101.7232     0.310463      2204118          147  0.007193656   -149178.91    -146571.4 
[...]
  381700    1094.8791    103.70468      2204118          147  0.007193656   -149312.89   -146721.57 
  381800    1084.9806   -120.78264      2204118          147  0.007193656    -149248.3   -146680.41 
  381900    1123.6823   -22.278608      2204118          147  0.007193656   -149147.18   -146487.69 
  382000    1085.9077    168.02657      2204118          147  0.007193656   -149024.54   -146454.45 
  382100    1130.9555   -99.302182      2204118          147  0.007193656   -149184.68   -146507.98 
  382200     1115.694    33.124524      2204118          147  0.007193656   -149253.14   -146612.55 
  382300    1101.2883    54.351597      2204118          147  0.007193656   -149295.13   -146688.64 
  382400    1061.5139   -44.843162      2204118          147  0.007193656   -149180.35      -146668 
  382500    1144.4668   -19.977618      2204118          147  0.007193656   -149306.17   -146597.49 
  382600    1092.7503   -206.65784      2204118          147  0.007193656   -149132.19   -146545.91 
  382700    1158.4362    168.80919      2204118          147  0.007193656   -149207.42   -146465.67 
  382800    1156.7956    87.500136      2204118          147  0.007193656   -149184.45   -146446.58 
  382900    1112.8829  -0.34009161      2204118          147  0.007193656   -149229.53    -146595.6 
  383000    1088.1856   -150.20839      2204118          147  0.007193656   -149278.15   -146702.68 
  383100    1127.0081   -209.41785      2204118          147  0.007193656   -149356.72   -146689.36 
  383200    1132.8136    118.70117      2204118          147  0.007193656   -149234.31   -146553.21 
  383300     1085.805    68.116398      2204118          147  0.007193656   -149005.43   -146435.59 
  383400    1136.0673    167.21595      2204118          147  0.007193656   -148968.01    -146279.2 
  383500    1122.3958    50.212027      2204118          147  0.007193656   -148957.43   -146300.98 
  383600    1140.9925   -165.00607      2204118          147  0.007193656   -149230.86    -146530.4 
  383700    1030.4337    26.026237      2204118          147  0.007193656   -149076.85   -146638.06 
  383800    1107.0791      284.568      2204118          147  0.007193656   -149297.18   -146676.98 
  383900    1053.8378   -66.175012      2204118          147  0.007193656   -149140.34   -146646.16 
  384000    1111.2351    86.389268      2204118          147  0.007193656   -149117.52   -146487.49 
  384100    1142.2249    -190.2006      2204118          147  0.007193656   -149108.46   -146405.08 
  384200    1079.2452   -70.427893      2204118          147  0.007193656   -149050.24   -146495.92 
  384300    1109.4563    11.391981      2204118          147  0.007193656    -149184.1   -146558.28 
  384400    1106.1583    133.86368      2204118          147  0.007193656   -149229.15   -146611.14 
  384500    1071.6619   -214.04096      2204118          147  0.007193656    -149200.1   -146663.73 
  384600    1121.4036   -226.83297      2204118          147  0.007193656    -149355.2    -146701.1 
  384700    1102.0709   -139.58573      2204118          147  0.007193656   -149251.12   -146642.78 
  384800    1151.7345   -177.17211      2204118          147  0.007193656   -149219.97   -146494.09 
  384900    1150.0496    175.51084      2204118          147  0.007193656   -149155.57   -146433.67 
  385000      1097.75   -64.989546      2204118          147  0.007193656   -149154.33   -146556.22 
  385100    1102.3508   -78.795367      2204118          147  0.007193656   -149268.93   -146659.92 
  385200    1035.0393    4.3781468      2204118          147  0.007193656   -149135.84   -146686.15 
  385300    1163.3667   -46.407851      2204118          147  0.007193656   -149377.74   -146624.33 
  385400    1088.0957    78.251849      2204118          147  0.007193656    -149134.6   -146559.33 
  385500    1143.4121   -89.617209      2204118          147  0.007193656   -149136.44   -146430.25 
  385600     1132.036    38.643193      2204118          147  0.007193656   -149104.47    -146425.2 
  385700    1093.4359    46.220319      2204118          147  0.007193656    -149212.8   -146624.89 
  385800    1051.7509   -111.33574      2204118          147  0.007193656   -149161.41   -146672.16 
  385900    1107.9534     180.9684      2204118          147  0.007193656   -149240.35   -146618.09 
  386000    1142.8442     9.081943      2204118          147  0.007193656   -149237.28   -146532.44 
  386100    1150.6708    162.90739      2204118          147  0.007193656   -149139.45   -146416.09 
  386200    1111.2851    146.67776      2204118          147  0.007193656   -148971.46   -146341.31 
  386300    1091.9433   -45.304876      2204118          147  0.007193656   -149102.95   -146518.58 
  386400    1141.3738   -255.94949      2204118          147  0.007193656   -149322.14   -146620.78 
  386500    1079.6722   -84.218889      2204118          147  0.007193656   -149206.03    -146650.7 
  386600    1141.8921    31.409124      2204118          147  0.007193656    -149391.8   -146689.21 
  386700    1129.9687    41.898621      2204118          147  0.007193656   -149357.28   -146682.91 
  386800    1085.8372    27.735943      2204118          147  0.007193656   -149204.39   -146634.47 
  386900    1144.6464   -73.020236      2204118          147  0.007193656   -149267.68   -146558.57 
  387000     1083.394   -173.77315      2204118          147  0.007193656   -149060.46   -146496.32 
  387100    1121.0536    16.643194      2204118          147  0.007193656   -149161.14   -146507.87 
  387200    1078.5315    23.236755      2204118          147  0.007193656   -149233.18   -146680.55 
  387300    1069.9746    130.03863      2204118          147  0.007193656    -149243.4   -146711.02 
  387400    1084.8317   -40.139625      2204118          147  0.007193656   -149226.21   -146658.67 
  387500    1148.5966   -39.517184      2204118          147  0.007193656    -149201.9   -146483.45 
  387600     1114.414   -115.40764      2204118          147  0.007193656   -149006.81   -146369.25 
  387700    1162.6831    6.8101756      2204118          147  0.007193656   -149157.25   -146405.46 
  387800    1116.3648    65.369503      2204118          147  0.007193656   -149154.72   -146512.55 
  387900    1056.7894   -48.295707      2204118          147  0.007193656   -149129.22   -146628.05 
  388000    1114.9792   -83.859316      2204118          147  0.007193656   -149304.85   -146665.96 
  388100     1072.113   -130.58397      2204118          147  0.007193656   -149194.16   -146656.73 
  388200    1107.0537     25.27186      2204118          147  0.007193656   -149127.08   -146506.95 
  388300    1170.2184    134.74097      2204118          147  0.007193656   -149162.75   -146393.12 
  388400     1149.913    12.198176      2204118          147  0.007193656   -149199.19   -146477.62 
  388500     1142.752    -213.5775      2204118          147  0.007193656   -149324.92   -146620.29 
  388600    1087.2277   -82.939503      2204118          147  0.007193656   -149212.05   -146638.84 
  388700    1092.9664   -86.841521      2204118          147  0.007193656   -149204.96   -146618.16 
  388800    1084.2697     49.91397      2204118          147  0.007193656   -149161.23   -146595.02 
  388900    1099.5585   -28.965757      2204118          147  0.007193656   -149053.23   -146450.84 
  389000    1152.7764    -28.35804      2204118          147  0.007193656   -149121.59   -146393.24 
  389100    1089.9783   -103.43997      2204118          147  0.007193656   -149135.17   -146555.44 
  389200    1133.2427   -146.27499      2204118          147  0.007193656   -149300.91   -146618.79 
  389300    1099.9946    122.60119      2204118          147  0.007193656   -149226.53   -146623.11 
  389400    1078.0608     177.0792      2204118          147  0.007193656   -149184.56   -146633.05 
  389500    1041.4367    1.2364695      2204118          147  0.007193656   -149092.01   -146627.17 
  389600    1147.0996    -190.3324      2204118          147  0.007193656   -149227.44   -146512.53 
  389700     1138.615   -88.751206      2204118          147  0.007193656   -149100.84   -146406.01 
  389800    1118.4962    52.955143      2204118          147  0.007193656   -149139.15   -146491.93 
  389900    1086.4299    270.74051      2204118          147  0.007193656   -149201.07   -146629.75 
  390000    1096.4686    17.621943      2204118          147  0.007193656    -149252.7   -146657.61 
  390100    1060.8339   -265.52471      2204118          147  0.007193656   -149128.12   -146617.38 
  390200    1092.7527   -60.699566      2204118          147  0.007193656   -149124.98   -146538.69 
  390300    1152.8525   -12.820283      2204118          147  0.007193656   -149195.24   -146466.71 
  390400    1086.6036    36.229767      2204118          147  0.007193656   -149115.58   -146543.85 
  390500    1072.2655    128.46881      2204118          147  0.007193656   -149284.63   -146746.83 
  390600     1084.944   -163.63355      2204118          147  0.007193656   -149294.52   -146726.71 
  390700    1161.5513   -12.793405      2204118          147  0.007193656   -149307.33   -146558.21 
  390800    1109.6555   -162.19968      2204118          147  0.007193656   -149102.32   -146476.03 
  390900    1120.0256    192.72001      2204118          147  0.007193656   -149127.25   -146476.41 
  391000    1073.8188    244.97716      2204118          147  0.007193656   -149162.78   -146621.31 
  391100    1116.1621   -66.774579      2204118          147  0.007193656   -149413.02   -146771.33 
  391200      1069.32   -49.373994      2204118          147  0.007193656   -149265.32   -146734.49 
  391300    1089.9115   -50.664289      2204118          147  0.007193656   -149171.82   -146592.26 
  391400    1119.4326   -163.58891      2204118          147  0.007193656   -149149.96   -146500.52 
  391500    1145.6943    60.620521      2204118          147  0.007193656   -149232.87   -146521.28 
  391600    1125.6497    199.52363      2204118          147  0.007193656   -149275.73   -146611.59 
  391700    1067.0397    201.59709      2204118          147  0.007193656   -149161.62   -146636.19 
  391800    1079.5869   -79.485615      2204118          147  0.007193656   -149167.48   -146612.36 
  391900    1105.0113   -134.95855      2204118          147  0.007193656   -149175.99   -146560.69 
  392000    1093.2037  -0.53557653      2204118          147  0.007193656    -149094.8   -146507.45 
  392100    1125.9412   -63.755589      2204118          147  0.007193656   -149231.57   -146566.73 
  392200    1058.3754    2.2659473      2204118          147  0.007193656   -149283.99   -146779.06 
  392300    1078.5675   -88.274631      2204118          147  0.007193656   -149330.29   -146777.58 
  392400    1079.9121   -42.883812      2204118          147  0.007193656   -149201.32   -146645.42 
  392500    1066.7545     20.08876      2204118          147  0.007193656   -149049.81   -146525.05 
  392600    1115.2376    20.059749      2204118          147  0.007193656   -149148.14   -146508.64 
  392700    1032.5599   -57.129524      2204118          147  0.007193656   -148989.83      -146546 
  392800    1117.9477   -37.690959      2204118          147  0.007193656   -149339.92      -146694 
  392900    1087.8231   -45.586748      2204118          147  0.007193656   -149381.26   -146806.64 
  393000    1066.4026   -77.047417      2204118          147  0.007193656   -149256.92      -146733 
  393100    1102.9303    127.79864      2204118          147  0.007193656   -149250.51   -146640.13 
  393200    1074.9771    92.114252      2204118          147  0.007193656   -149135.64   -146591.42 
  393300    1147.0009    104.06377      2204118          147  0.007193656   -149279.28    -146564.6 
  393400    1132.0789    33.844938      2204118          147  0.007193656   -149195.33   -146515.97 
  393500    1151.7504    -99.83254      2204118          147  0.007193656   -149189.73   -146463.81 
  393600    1137.2071    25.840924      2204118          147  0.007193656    -149213.6    -146522.1 
  393700    1046.1365   -103.04021      2204118          147  0.007193656   -149154.88   -146678.93 
  393800    1114.5478    27.386853      2204118          147  0.007193656   -149339.43   -146701.56 
  393900    1111.1744   -80.198897      2204118          147  0.007193656   -149276.12   -146646.24 
  394000    1173.6202    179.37761      2204118          147  0.007193656   -149236.26   -146458.58 
  394100     1181.026    29.352555      2204118          147  0.007193656   -149142.29   -146347.08 
  394200    1134.0965   -23.666782      2204118          147  0.007193656    -149164.3   -146480.16 
  394300    1090.5284    169.26685      2204118          147  0.007193656   -149230.71   -146649.69 
  394400    1065.1828   -10.848184      2204118          147  0.007193656   -149166.55   -146645.52 
  394500    1080.6589    64.803003      2204118          147  0.007193656   -149168.85   -146611.19 
  394600    1099.0239   -125.03853      2204118          147  0.007193656   -149147.58   -146546.45 
  394700      1131.89   -113.79291      2204118          147  0.007193656   -149142.88   -146463.96 
  394800    1138.8917   -11.958415      2204118          147  0.007193656   -149156.76   -146461.27 
  394900    1074.9062    -11.58757      2204118          147  0.007193656   -149194.31   -146650.26 
  395000    1133.8223     145.9973      2204118          147  0.007193656   -149363.19   -146679.71 
  395100    1092.2334   -46.637188      2204118          147  0.007193656   -149241.05   -146655.99 
  395200    1136.6735   -6.4247299      2204118          147  0.007193656   -149217.98   -146527.74 
  395300    1142.6235   -7.5571085      2204118          147  0.007193656   -149059.67   -146355.35 
  395400    1139.1063   -103.15027      2204118          147  0.007193656   -149059.68   -146363.68 
  395500    1120.2327    47.074383      2204118          147  0.007193656   -149125.37   -146474.05 
  395600    1073.0233    133.20923      2204118          147  0.007193656   -149100.31   -146560.71 
  395700    1138.3024    218.15607      2204118          147  0.007193656   -149306.16   -146612.07 
  395800    1079.5138   -150.08678      2204118          147  0.007193656   -149242.31   -146687.35 
  395900    1050.6986   -105.32621      2204118          147  0.007193656   -149257.29   -146770.53 
  396000    1008.0518    168.90785      2204118          147  0.007193656   -149245.76   -146859.94 
  396100    1102.9579    104.47087      2204118          147  0.007193656   -149362.61   -146752.17 
  396200    1156.6658    18.448952      2204118          147  0.007193656   -149327.37   -146589.82 
  396300    1152.1331   -4.0060845      2204118          147  0.007193656   -149252.36   -146525.54 
  396400    1123.0254    66.552668      2204118          147  0.007193656   -149198.45   -146540.51 
  396500    1112.8613   -45.342844      2204118          147  0.007193656   -149296.69   -146662.81 
  396600    1036.9642    135.69322      2204118          147  0.007193656   -149264.72   -146810.47 
  396700    1085.4838   -27.345248      2204118          147  0.007193656   -149320.24   -146751.16 
  396800    1014.7362    48.567077      2204118          147  0.007193656   -149028.23   -146626.59 
  396900    1159.2637   -59.193999      2204118          147  0.007193656   -149299.82   -146556.12 
  397000    1073.9887    48.578252      2204118          147  0.007193656   -149111.39   -146569.51 
  397100    1118.0112   -25.211862      2204118          147  0.007193656   -149227.54   -146581.48 
  397200    1109.1125   -37.505665      2204118          147  0.007193656   -149237.88   -146612.87 
  397300    1058.3734    30.151573      2204118          147  0.007193656   -149238.93   -146734.01 
  397400    1036.7906     20.90686      2204118          147  0.007193656   -149240.77   -146786.93 
  397500    1147.3133   -55.822441      2204118          147  0.007193656   -149359.62    -146644.2 
  397600    1100.0018   -56.281556      2204118          147  0.007193656    -149092.1   -146488.66 
  397700    1153.6088     126.4581      2204118          147  0.007193656    -149248.3   -146517.98 
  397800    1084.9188   -13.464204      2204118          147  0.007193656   -149185.94    -146618.2 
  397900    1104.4134    150.08357      2204118          147  0.007193656   -149306.43   -146692.54 
  398000    1070.5016   -121.90317      2204118          147  0.007193656   -149235.11   -146701.49 
  398100    1184.4975   -12.177139      2204118          147  0.007193656   -149326.07   -146522.65 
  398200    1063.9466    77.775853      2204118          147  0.007193656   -148942.89   -146424.78 
  398300    1070.9271    82.084734      2204118          147  0.007193656    -148999.8   -146465.17 
  398400     1123.302    50.931541      2204118          147  0.007193656   -149294.67   -146636.08 
  398500    1062.3229   -229.62661      2204118          147  0.007193656   -149202.49   -146688.22 
  398600    1095.6473   -18.762394      2204118          147  0.007193656   -149194.25   -146601.12 
  398700    1122.9384    84.246891      2204118          147  0.007193656   -149169.07   -146511.34 
  398800    1147.7972    198.59321      2204118          147  0.007193656   -149145.54   -146428.98 
  398900     1180.392    19.284734      2204118          147  0.007193656   -149233.61    -146439.9 
  399000     1104.729   -259.65251      2204118          147  0.007193656   -149227.63   -146612.99 
  399100    1064.6601   -58.390893      2204118          147  0.007193656   -149230.41   -146710.62 
  399200    1137.4573   -44.839095      2204118          147  0.007193656   -149354.09      -146662 
  399300    1142.2142    176.06521      2204118          147  0.007193656   -149224.63   -146521.28 
  399400    1143.4458      80.7867      2204118          147  0.007193656   -149164.61   -146458.35 
  399500    1112.8963   -211.52922      2204118          147  0.007193656   -149121.16   -146487.19 
  399600    1104.7296    7.3232155      2204118          147  0.007193656   -149260.17   -146645.53 
  399700    1103.6892   -57.709588      2204118          147  0.007193656   -149315.17      -146703 
  399800    1107.8754   -84.239341      2204118          147  0.007193656   -149261.84   -146639.76 
  399900    1098.4372    117.20678      2204118          147  0.007193656   -149137.71   -146537.97 
  400000    1180.7867    40.604935      2204118          147  0.007193656   -149190.39   -146395.75 
  400057    1133.6206   -41.725049      2204118          147  0.007193656   -149055.03   -146372.02 
Loop time of 5298.13 on 16 procs for 400000 steps with 795 atoms

Performance: 1.631 ns/day, 14.717 hours/ns, 75.498 timesteps/s
99.9% CPU use with 16 MPI tasks x no OpenMP threads

MPI task timing breakdown:
Section |  min time  |  avg time  |  max time  |%varavg| %total
---------------------------------------------------------------
Pair    | 0.2551     | 1206.1     | 4329.2     |4369.4 | 22.76
Neigh   | 0.038445   | 3.4899     | 7.5873     | 184.9 |  0.07
Comm    | 0.63558    | 806.77     | 3177.9     |3838.4 | 15.23
Output  | 0.38956    | 0.40696    | 0.52228    |   4.8 |  0.01
Modify  | 927.07     | 3280.2     | 5295.9     |3568.4 | 61.91
Other   |            | 1.197      |            |       |  0.02

Nlocal:        49.6875 ave         208 max           0 min
Histogram: 12 0 0 0 0 0 0 0 0 4
Nghost:        160.562 ave         427 max           0 min
Histogram: 8 0 0 0 0 4 0 0 0 4
Neighs:        3061.75 ave       12851 max           0 min
Histogram: 12 0 0 0 0 0 0 0 0 4

Total # of neighbors = 48988
Ave neighs/atom = 61.620126
Neighbor list builds = 13819
Dangerous builds = 1

write_data graphene_single_layer_ReaxFF_795_C_temp_1100K.data
System init for write_data ...
Total wall time: 1:28:22
