
# System definition
read_data graphene_single_layer_x-45_y-45_795_C.data
Reading data file ...
  orthogonal box = (-51.000000 -51.000000 -51.000000) to (96.000000 96.000000 51.000000)
  2 by 4 by 2 MPI processor grid
  reading atoms ...
  795 atoms
  read_data CPU = 0.027 seconds

pair_style reax/c NULL
pair_coeff * * ffield.reax.cho C
Reading potential file ffield.reax.cho with DATE: 2011-02-18
fix qeq_reax all qeq/reax 1 0.0 10.0 1.0e-6 reax/c


# Minimization
timestep 0.25
min_style cg
thermo 100
thermo_style custom step temp press vol lx density pe etotal
dump 2 all custom 1000 graphene_single_layer_ReaxFF_795_C_temp_1000K.lammpstrj id type x y z
minimize 1.0e-6 1.0e-6 100 1000

CITE-CITE-CITE-CITE-CITE-CITE-CITE-CITE-CITE-CITE-CITE-CITE-CITE

Your simulation uses code contributions which should be cited:

- pair reaxff command:

@Article{Aktulga12,
 author = {H. M. Aktulga, J. C. Fogarty, S. A. Pandit, A. Y. Grama},
 title = {Parallel reactive molecular dynamics: Numerical methods and algorithmic techniques},
 journal = {Parallel Computing},
 year =    2012,
 volume =  38,
 pages =   {245--259}
}

- fix qeq/reaxff command:

@Article{Aktulga12,
 author = {H. M. Aktulga, J. C. Fogarty, S. A. Pandit, A. Y. Grama},
 title = {Parallel reactive molecular dynamics: Numerical methods and algorithmic techniques},
 journal = {Parallel Computing},
 year =    2012,
 volume =  38,
 pages =   {245--259}
}

CITE-CITE-CITE-CITE-CITE-CITE-CITE-CITE-CITE-CITE-CITE-CITE-CITE

WARNING: Using 'neigh_modify every 1 delay 0 check yes' setting during minimization (../min.cpp:188)
Neighbor list info ...
  update every 1 steps, delay 0 steps, check yes
  max neighbors/atom: 10000, page size: 100000
  master list distance cutoff = 10.4
  ghost atom cutoff = 10.4
  binsize = 5.2, bins = 29 29 20
  2 neighbor lists, perpetual/occasional/extra = 2 0 0
  (1) pair reax/c, perpetual
      attributes: half, newton off, ghost
      pair build: half/bin/newtoff/ghost
      stencil: full/ghost/bin/3d
      bin: standard
  (2) fix qeq/reax, perpetual, copy from (1)
      attributes: half, newton off, ghost
      pair build: copy
      stencil: none
      bin: none
Per MPI rank memory allocation (min/avg/max) = 7.965 | 10.90 | 14.56 Mbytes
Step Temp Press Volume Lx Density PotEng TotEng 
       0            0    4589.6155      2204118          147  0.007193656   -142445.78   -142445.78 
      57            0    1294.9092      2204118          147  0.007193656   -150031.46   -150031.46 
Loop time of 3.90838 on 16 procs for 57 steps with 795 atoms

99.9% CPU use with 16 MPI tasks x no OpenMP threads

Minimization stats:
  Stopping criterion = energy tolerance
  Energy initial, next-to-last, final = 
     -142445.777810412  -150031.434465826  -150031.460524184
  Force two-norm initial, final = 2416.1570 1787.6736
  Force max component initial, final = 272.51119 337.29483
  Final line search alpha, max atom move = 0.00017977701 0.060637855
  Iterations, force evaluations = 57 237

MPI task timing breakdown:
Section |  min time  |  avg time  |  max time  |%varavg| %total
---------------------------------------------------------------
Pair    | 0.00022451 | 0.7851     | 2.7289     | 109.8 | 20.09
Neigh   | 3.5697e-05 | 0.0017769  | 0.0037812  |   4.1 |  0.05
Comm    | 0.00040475 | 0.49412    | 1.9466     |  96.3 | 12.64
Output  | 0          | 0          | 0          |   0.0 |  0.00
Modify  | 1.151      | 1.1546     | 1.1573     |   0.2 | 29.54
Other   |            | 1.473      |            |       | 37.68

Nlocal:        49.6875 ave         209 max           0 min
Histogram: 12 0 0 0 0 0 0 0 0 4
Nghost:        162.812 ave         432 max           0 min
Histogram: 8 0 0 0 0 4 0 0 0 4
Neighs:        3113.44 ave       13116 max           0 min
Histogram: 12 0 0 0 0 0 0 0 0 4

Total # of neighbors = 49815
Ave neighs/atom = 62.660377
Neighbor list builds = 6
Dangerous builds = 0

fix 1 all nvt temp 1000.0 1000.0 $(100.0*dt)
fix 1 all nvt temp 1000.0 1000.0 25
run 400000
Per MPI rank memory allocation (min/avg/max) = 6.841 | 9.777 | 13.44 Mbytes
Step Temp Press Volume Lx Density PotEng TotEng 
      57            0    1294.9092      2204118          147  0.007193656   -150031.46   -150031.46 
     100    121.46532     1524.275      2204118          147  0.007193656   -150304.18    -150016.7 
     200    292.62804    -716.8926      2204118          147  0.007193656   -150483.41   -149790.83 
     300     347.1621   -846.18529      2204118          147  0.007193656   -150338.57   -149516.91 
     400    442.04025   -859.47142      2204118          147  0.007193656   -150162.93   -149116.72 
     500    676.38571      535.053      2204118          147  0.007193656   -150169.18   -148568.34 
     600    579.87417    817.19694      2204118          147  0.007193656   -149388.27   -148015.84 
     700     925.7732   -310.86858      2204118          147  0.007193656    -149543.3   -147352.21 
     800    830.91142   -831.95375      2204118          147  0.007193656   -148750.52   -146783.95 
     900    962.51424   -733.19476      2204118          147  0.007193656   -148471.51   -146193.46 
    1000    1312.5411   -333.46017      2204118          147  0.007193656   -148994.45   -145887.97 
    1100    1035.3146    834.80119      2204118          147  0.007193656   -149157.39   -146707.05 
    1200    811.66617    1189.3067      2204118          147  0.007193656   -148889.65   -146968.63 
    1300     1004.186    -179.8269      2204118          147  0.007193656   -149015.22   -146638.54 
    1400    1128.2237    -581.2831      2204118          147  0.007193656   -149081.63    -146411.4 
    1500    990.57283   -627.98146      2204118          147  0.007193656   -148845.15   -146500.69 
    1600    1099.1223   -178.13385      2204118          147  0.007193656   -149383.62   -146782.26 
    1700    862.35562     988.0126      2204118          147  0.007193656   -149266.83   -147225.84 
    1800    885.79469    216.54251      2204118          147  0.007193656   -149258.25   -147161.78 
    1900    984.62465   -394.56797      2204118          147  0.007193656   -149117.86   -146787.49 
    2000    1038.0858   -719.51538      2204118          147  0.007193656   -148966.79   -146509.89 
    2100    1109.5439   -561.35239      2204118          147  0.007193656   -148924.35   -146298.32 
    2200    1095.9934   -78.391759      2204118          147  0.007193656   -149111.24   -146517.28 
    2300    910.05069    832.54733      2204118          147  0.007193656   -149202.18   -147048.31 
    2400    892.00787    1124.7406      2204118          147  0.007193656   -149273.43   -147162.26 
    2500    1024.3563   -308.21993      2204118          147  0.007193656   -149401.68   -146977.27 
    2600    1031.6327   -425.85345      2204118          147  0.007193656   -149270.59   -146828.96 
    2700    1043.1202   -393.54886      2204118          147  0.007193656   -149232.99   -146764.17 
    2800    984.15531   -114.32884      2204118          147  0.007193656   -149183.59   -146854.33 
    2900    990.28312    288.42384      2204118          147  0.007193656   -149303.13   -146959.36 
    3000    1012.4041    20.583826      2204118          147  0.007193656   -149362.29   -146966.17 
    3100    1002.6346   -491.25825      2204118          147  0.007193656   -149260.67   -146887.67 
    3200    994.55906   -354.04171      2204118          147  0.007193656   -149183.58    -146829.7 
    3300    1072.7564   -85.549871      2204118          147  0.007193656   -149478.32   -146939.36 
    3400    957.98081    478.88906      2204118          147  0.007193656   -149438.75   -147171.44 
    3500      931.388    538.27537      2204118          147  0.007193656   -149399.54   -147195.17 
    3600    1006.1471   -104.83911      2204118          147  0.007193656    -149319.5   -146938.19 
    3700    1070.0316   -120.97609      2204118          147  0.007193656   -149206.89   -146674.38 
    3800    1075.0985   -160.25349      2204118          147  0.007193656    -149234.9    -146690.4 
    3900    1015.7602    34.784643      2204118          147  0.007193656   -149411.17   -147007.11 
    4000     913.5696     294.2127      2204118          147  0.007193656   -149379.53   -147217.32 
    4100    960.06007   -60.709504      2204118          147  0.007193656    -149404.8   -147132.56 
    4200    1012.9743   -257.54066      2204118          147  0.007193656   -149252.35   -146854.88 
    4300    1052.4436   -262.15931      2204118          147  0.007193656    -149127.1   -146636.21 
    4400    1068.1251   -260.00288      2204118          147  0.007193656   -149209.64   -146681.64 
    4500    971.53824    141.20893      2204118          147  0.007193656    -149266.9    -146967.5 
    4600    991.40091    218.34102      2204118          147  0.007193656   -149501.21    -147154.8 
    4700    955.79142    300.87835      2204118          147  0.007193656   -149400.47   -147138.34 
    4800    971.75328    57.639594      2204118          147  0.007193656   -149223.21    -146923.3 
    4900    1086.3688   -30.981796      2204118          147  0.007193656   -149277.69   -146706.51 
    5000    1047.4637    5.9844073      2204118          147  0.007193656   -149301.41   -146822.31 
    5100    977.83658   -65.609786      2204118          147  0.007193656   -149356.59   -147042.28 
    5200    930.06949   -122.66538      2204118          147  0.007193656   -149326.13   -147124.87 
    5300      957.862   -224.21435      2204118          147  0.007193656   -149262.66   -146995.63 
    5400    1009.3444    -234.2418      2204118          147  0.007193656      -149169   -146780.12 
    5500    1043.4989    30.890894      2204118          147  0.007193656   -149184.42    -146714.7 
    5600    1062.8758    30.627561      2204118          147  0.007193656   -149406.88    -146891.3 
    5700    958.72204    126.20895      2204118          147  0.007193656   -149351.68   -147082.61 
    5800    960.53628   -36.334211      2204118          147  0.007193656   -149384.66    -147111.3 
    5900    1007.0189    44.158661      2204118          147  0.007193656   -149342.75   -146959.37 
    6000    1066.6764    67.460913      2204118          147  0.007193656   -149336.29   -146811.72 
    6100    1031.4433    68.287963      2204118          147  0.007193656   -149300.05   -146858.87 
    6200    1006.5207   -17.657405      2204118          147  0.007193656   -149410.09    -147027.9 
    6300    984.97248    88.636125      2204118          147  0.007193656   -149448.23   -147117.03 
    6400    942.12459   -162.63848      2204118          147  0.007193656   -149277.45   -147047.66 
    6500    961.33189   -282.23871      2204118          147  0.007193656    -149143.1   -146867.85 
    6600    1054.3234   -20.917506      2204118          147  0.007193656   -149281.99   -146786.65 
    6700    1034.2111     92.70289      2204118          147  0.007193656   -149276.03    -146828.3 
    6800    1012.1548    115.63586      2204118          147  0.007193656   -149408.18   -147012.64 
    6900    973.91065    81.934895      2204118          147  0.007193656   -149374.98   -147069.97 
    7000    1014.3095    5.8849995      2204118          147  0.007193656   -149420.46   -147019.83 
    7100    1045.8512   -93.974589      2204118          147  0.007193656   -149353.43   -146878.15 
    7200    998.22167    91.727402      2204118          147  0.007193656   -149193.18   -146830.62 
    7300    998.04861   -64.603558      2204118          147  0.007193656   -149283.46   -146921.31 
    7400    1035.9885   -28.158992      2204118          147  0.007193656   -149429.09   -146977.15 
    7500     980.0465   -157.15049      2204118          147  0.007193656   -149323.92   -147004.38 
    7600    1036.0592   -201.32279      2204118          147  0.007193656   -149397.07   -146944.96 
    7700    988.41879    5.8164212      2204118          147  0.007193656    -149143.3   -146803.95 
    7800    1028.9323   -127.02521      2204118          147  0.007193656   -149093.62   -146658.38 
    7900    1087.9313    129.49891      2204118          147  0.007193656   -149347.41   -146772.53 
    8000    1013.7954    72.858266      2204118          147  0.007193656   -149305.02   -146905.61 
    8100    1018.1623     35.50606      2204118          147  0.007193656   -149399.94   -146990.19 
    8200    973.67345    121.80211      2204118          147  0.007193656   -149324.98   -147020.53 
    8300    1043.4334    163.59948      2204118          147  0.007193656   -149393.26    -146923.7 
    8400    1012.8638    41.513298      2204118          147  0.007193656   -149210.79   -146813.58 
    8500    1054.1961     9.877206      2204118          147  0.007193656   -149336.04   -146841.01 
    8600    992.13714    35.152788      2204118          147  0.007193656   -149394.49   -147046.34 
    8700    970.20484   -25.851056      2204118          147  0.007193656   -149375.14   -147078.89 
    8800    997.89138    16.321078      2204118          147  0.007193656   -149414.76   -147052.99 
    8900    969.57875   -13.126295      2204118          147  0.007193656   -149186.27   -146891.51 
    9000    995.84548   -24.289815      2204118          147  0.007193656   -149170.42   -146813.49 
    9100     987.8128   -61.175231      2204118          147  0.007193656   -149236.97   -146899.05 
    9200    1018.2207    218.08613      2204118          147  0.007193656   -149390.84   -146980.95 
    9300    965.41663    14.568255      2204118          147  0.007193656   -149296.69   -147011.77 
    9400    993.60812    25.597588      2204118          147  0.007193656   -149353.08   -147001.44 
    9500    993.60312   -11.966758      2204118          147  0.007193656   -149324.45   -146972.83 
    9600    991.27275   -1.9119065      2204118          147  0.007193656   -149281.36   -146935.26 
    9700    1029.0388   -49.111456      2204118          147  0.007193656   -149378.65   -146943.16 
    9800    973.97058    72.021498      2204118          147  0.007193656   -149421.63   -147116.47 
    9900    948.75648   -5.6931187      2204118          147  0.007193656   -149436.89    -147191.4 
   10000    988.80133   -132.99145      2204118          147  0.007193656   -149372.35   -147032.09 
   10100    1008.1956   -85.329493      2204118          147  0.007193656   -149288.15   -146901.99 
   10200    1074.4779   -106.97257      2204118          147  0.007193656    -149353.1   -146810.07 
   10300    1029.9103    205.53381      2204118          147  0.007193656   -149325.57   -146888.01 
   10400    962.40953    195.86371      2204118          147  0.007193656   -149309.03   -147031.23 
   10500    966.71461    75.296564      2204118          147  0.007193656   -149306.68   -147018.69 
   10600    970.21784   -97.808861      2204118          147  0.007193656   -149244.13   -146947.85 
   10700    1011.8378   -29.924603      2204118          147  0.007193656   -149215.29   -146820.51 
   10800      1031.18    133.20433      2204118          147  0.007193656   -149195.52   -146754.96 
   10900    978.70312    33.376121      2204118          147  0.007193656   -149254.67   -146938.31 
   11000    979.03051    83.270028      2204118          147  0.007193656   -149351.94    -147034.8 
   11100    1000.3115   -39.650558      2204118          147  0.007193656   -149381.08   -147013.58 
   11200    1019.7697   -114.38251      2204118          147  0.007193656   -149310.56   -146897.01 
   11300    1031.8527   -82.903495      2204118          147  0.007193656   -149259.68   -146817.53 
   11400    1030.4742    -98.74335      2204118          147  0.007193656   -149333.18    -146894.3 
   11500     1040.871    291.43791      2204118          147  0.007193656   -149515.83   -147052.34 
   11600    991.89737     25.89864      2204118          147  0.007193656   -149426.22   -147078.63 
   11700    952.76024    90.491955      2204118          147  0.007193656   -149276.37   -147021.41 
   11800    1041.5349   -80.502275      2204118          147  0.007193656   -149335.77    -146870.7 
   11900    1025.5294    17.329681      2204118          147  0.007193656   -149265.84   -146838.65 
   12000    1036.0094    110.98733      2204118          147  0.007193656   -149349.48   -146897.49 
   12100    997.22122    -22.06245      2204118          147  0.007193656    -149372.4   -147012.21 
   12200    1038.1957    29.628966      2204118          147  0.007193656    -149489.2   -147032.04 
   12300    989.76013   -240.20283      2204118          147  0.007193656    -149369.3   -147026.77 
   12400    1007.6098     44.33759      2204118          147  0.007193656   -149320.94   -146936.16 
   12500    1051.3239    109.13991      2204118          147  0.007193656   -149247.42   -146759.19 
   12600    1058.2211    127.98569      2204118          147  0.007193656   -149284.69   -146780.13 
   12700    1030.2155   -14.578224      2204118          147  0.007193656   -149304.93   -146866.65 
   12800    1021.7037   -82.262786      2204118          147  0.007193656   -149395.75   -146977.62 
   12900    961.36632   -42.640968      2204118          147  0.007193656   -149301.25   -147025.92 
   13000    954.63687    90.781619      2204118          147  0.007193656   -149246.71   -146987.31 
   13100    1015.6076   -3.3972901      2204118          147  0.007193656   -149263.71   -146860.01 
   13200    1092.7688    10.067807      2204118          147  0.007193656   -149346.72    -146760.4 
   13300    1019.2532   0.45170633      2204118          147  0.007193656   -149304.55   -146892.22 
   13400    954.73671   -176.12511      2204118          147  0.007193656   -149291.08   -147031.44 
   13500    962.86995   -83.220136      2204118          147  0.007193656    -149310.9   -147032.02 
   13600    990.60241   -35.711783      2204118          147  0.007193656   -149251.41   -146906.89 
   13700    986.49582   -50.178032      2204118          147  0.007193656   -149204.72   -146869.92 
   13800     989.4174   -57.463578      2204118          147  0.007193656   -149294.23   -146952.51 
   13900    997.47401   -14.755832      2204118          147  0.007193656   -149476.22   -147115.43 
   14000    994.84682     43.50171      2204118          147  0.007193656   -149456.28   -147101.71 
   14100    1014.6878    122.54436      2204118          147  0.007193656   -149408.82   -147007.29 
   14200    1020.8772   -69.035831      2204118          147  0.007193656   -149320.15   -146903.98 
   14300    983.54772   -49.038418      2204118          147  0.007193656    -149201.3   -146873.48 
   14400     988.6513    73.237227      2204118          147  0.007193656   -149368.87   -147028.97 
   14500    973.60461    153.33663      2204118          147  0.007193656   -149441.85   -147137.56 
   14600    973.64684   -98.403961      2204118          147  0.007193656   -149406.06   -147101.67 
   14700    1016.5491    37.576384      2204118          147  0.007193656   -149388.22   -146982.29 
   14800    997.33629   -143.26402      2204118          147  0.007193656   -149274.95   -146914.49 
   14900    991.88513   -30.574554      2204118          147  0.007193656   -149283.06    -146935.5 
   15000    1012.5831   -25.867901      2204118          147  0.007193656   -149428.62   -147032.08 
   15100    916.73934    55.184936      2204118          147  0.007193656   -149372.65   -147202.95 
   15200    935.27511    191.52477      2204118          147  0.007193656   -149361.81   -147148.23 
   15300    1017.7604    227.09792      2204118          147  0.007193656   -149400.34   -146991.55 
   15400    1051.7977     92.92911      2204118          147  0.007193656   -149419.39   -146930.04 
   15500    987.05355    270.59229      2204118          147  0.007193656   -149262.25   -146926.13 
   15600    991.43366    50.203564      2204118          147  0.007193656   -149370.91   -147024.43 
   15700    937.67619   -39.517468      2204118          147  0.007193656    -149400.7   -147181.45 
   15800    965.42426   -3.3095215      2204118          147  0.007193656   -149435.67   -147150.74 
   15900    988.75519   -86.684884      2204118          147  0.007193656   -149362.89   -147022.74 
   16000    968.86852   -142.16837      2204118          147  0.007193656   -149246.22   -146953.14 
   16100    1043.4751    -185.4173      2204118          147  0.007193656   -149369.54   -146899.88 
   16200     1020.378   -126.68065      2204118          147  0.007193656   -149321.14   -146906.15 
   16300    925.40304    139.29507      2204118          147  0.007193656   -149268.82   -147078.61 
   16400    979.86982   -32.425435      2204118          147  0.007193656    -149488.1   -147168.98 
   16500    1000.7049    1.1426576      2204118          147  0.007193656   -149442.99   -147074.56 
   16600     988.3824   -202.04992      2204118          147  0.007193656   -149304.76   -146965.49 
   16700    1013.2221    102.00604      2204118          147  0.007193656   -149315.32   -146917.26 
   16800    1010.8343    118.82127      2204118          147  0.007193656   -149327.96   -146935.55 
   16900    1019.1665    49.784854      2204118          147  0.007193656   -149501.23    -147089.1 
   17000    993.69217    11.941698      2204118          147  0.007193656   -149524.97   -147173.14 
   17100    942.35478   -145.42543      2204118          147  0.007193656   -149323.74   -147093.41 
   17200    978.96145    11.558963      2204118          147  0.007193656   -149276.34   -146959.37 
   17300     1008.637   -18.712793      2204118          147  0.007193656   -149284.63   -146897.42 
   17400    1033.0481    115.74471      2204118          147  0.007193656   -149389.87   -146944.89 
   17500    985.07772    147.83932      2204118          147  0.007193656   -149446.04   -147114.59 
   17600    959.13446   -68.850329      2204118          147  0.007193656    -149404.6   -147134.55 
   17700    984.51684   -52.339798      2204118          147  0.007193656   -149367.44   -147037.32 
   17800    986.76454    40.136485      2204118          147  0.007193656   -149281.56   -146946.12 
   17900    1008.6736    210.30334      2204118          147  0.007193656   -149303.88   -146916.58 
   18000    982.73365    150.52898      2204118          147  0.007193656   -149299.13   -146973.23 
   18100    1053.5497   -125.97738      2204118          147  0.007193656   -149549.76   -147056.25 
   18200    992.60658     5.792321      2204118          147  0.007193656   -149551.08   -147201.81 
   18300     983.1747   -77.643786      2204118          147  0.007193656   -149465.26   -147138.32 
   18400    1005.8012    78.447413      2204118          147  0.007193656   -149386.03   -147005.54 
   18500    981.42854    5.0987634      2204118          147  0.007193656   -149316.04   -146993.24 
   18600    969.65896   -167.00809      2204118          147  0.007193656    -149296.2   -147001.24 
   18700    1011.5581    24.606633      2204118          147  0.007193656   -149419.42    -147025.3 
   18800    962.28386    72.467733      2204118          147  0.007193656   -149392.11   -147114.61 
   18900     973.0938    99.213119      2204118          147  0.007193656   -149434.78    -147131.7 
   19000    1011.2914   -93.610759      2204118          147  0.007193656      -149394   -147000.51 
   19100    1000.0326   -213.88806      2204118          147  0.007193656   -149268.26   -146901.42 
   19200    1042.8575   -20.007255      2204118          147  0.007193656   -149366.78   -146898.59 
   19300    1011.0274   -59.440994      2204118          147  0.007193656   -149446.01   -147053.15 
   19400    931.77261    171.87632      2204118          147  0.007193656   -149373.26   -147167.98 
   19500    1012.0968   -89.193392      2204118          147  0.007193656   -149487.13   -147091.74 
   19600    1006.1098   -89.745926      2204118          147  0.007193656   -149322.24   -146941.01 
   19700    985.10974     19.01288      2204118          147  0.007193656   -149212.79   -146881.26 
   19800    1039.9939   -137.56673      2204118          147  0.007193656   -149383.68   -146922.26 
   19900    1019.1983    108.28412      2204118          147  0.007193656    -149477.9    -147065.7 
   20000    946.79668    91.892938      2204118          147  0.007193656    -149387.1   -147146.26 
   20100    1025.1853    69.691371      2204118          147  0.007193656   -149533.45   -147107.08 
   20200    1025.7661    -46.30466      2204118          147  0.007193656   -149416.51   -146988.76 
   20300    990.43986    128.19447      2204118          147  0.007193656    -149268.2   -146924.06 
   20400    1015.8243    72.232941      2204118          147  0.007193656   -149323.14   -146918.93 
   20500    999.11527   -71.491554      2204118          147  0.007193656    -149444.1   -147079.43 
   20600    979.76228   -144.92276      2204118          147  0.007193656    -149462.7   -147143.83 
   20700    995.01526   -21.949322      2204118          147  0.007193656   -149369.42   -147014.45 
   20800    1034.6954   -137.04899      2204118          147  0.007193656    -149359.5   -146910.62 
   20900    977.72626   -3.3475968      2204118          147  0.007193656   -149213.95   -146899.91 
   21000    1028.7519    76.243433      2204118          147  0.007193656   -149414.42   -146979.61 
   21100    959.94667     12.58342      2204118          147  0.007193656   -149401.29   -147129.33 
   21200    1012.4456    81.672762      2204118          147  0.007193656   -149594.89   -147198.67 
   21300    986.65149    50.770924      2204118          147  0.007193656   -149455.55   -147120.37 
   21400    966.55813   -75.002374      2204118          147  0.007193656   -149306.26   -147018.64 
   21500    1047.3609   -48.134972      2204118          147  0.007193656    -149382.6   -146903.75 
   21600    1023.4484   -44.872643      2204118          147  0.007193656   -149295.79   -146873.53 
   21700    977.77748   -55.193922      2204118          147  0.007193656   -149260.27    -146946.1 
   21800    972.80274   -52.641728      2204118          147  0.007193656   -149409.64   -147107.25 
   21900    974.19629   -135.46768      2204118          147  0.007193656   -149467.75   -147162.06 
   22000    943.16637   -6.0773779      2204118          147  0.007193656   -149328.47   -147096.22 
   22100     983.9053    56.339028      2204118          147  0.007193656   -149351.77    -147023.1 
   22200    1022.1717    24.761971      2204118          147  0.007193656    -149382.4   -146963.17 
   22300    972.87438   -68.106855      2204118          147  0.007193656   -149213.94   -146911.37 
   22400    1003.0954    86.217334      2204118          147  0.007193656   -149256.68   -146882.59 
   22500    990.37116   -11.127565      2204118          147  0.007193656   -149151.47    -146807.5 
   22600    1064.2089    27.783439      2204118          147  0.007193656   -149286.83    -146768.1 
   22700    995.76707   -58.182518      2204118          147  0.007193656   -149252.59   -146895.85 
   22800    912.83056   -38.360518      2204118          147  0.007193656   -149178.85    -147018.4 
   22900    974.37409    67.208546      2204118          147  0.007193656   -149322.09   -147015.97 
   23000    1041.3074   -25.750272      2204118          147  0.007193656      -149397   -146932.47 
   23100    1012.9037    66.650306      2204118          147  0.007193656   -149244.25   -146846.94 
   23200    1049.0927   -161.04813      2204118          147  0.007193656   -149162.06   -146679.11 
   23300    1119.5269     61.69382      2204118          147  0.007193656   -149295.86    -146646.2 
   23400    1065.9513    84.058917      2204118          147  0.007193656   -149315.63   -146792.78 
   23500    981.48184    54.048783      2204118          147  0.007193656   -149231.82   -146908.89 
   23600    955.93338    5.2702085      2204118          147  0.007193656   -149256.71   -146994.25 
   23700    1004.0069   -177.35875      2204118          147  0.007193656   -149405.91   -147029.66 
   23800    950.32031    3.4086288      2204118          147  0.007193656   -149308.69    -147059.5 
   23900    1043.4834    135.55183      2204118          147  0.007193656   -149492.47    -147022.8 
   24000    1016.6092   -107.30959      2204118          147  0.007193656   -149288.23   -146882.15 
   24100    1029.5656   -31.026698      2204118          147  0.007193656   -149245.73   -146808.99 
   24200    1006.2837   -7.8568601      2204118          147  0.007193656   -149247.16   -146865.53 
   24300    980.02919   -30.664138      2204118          147  0.007193656   -149358.73   -147039.24 
   24400    961.04422   -50.670155      2204118          147  0.007193656   -149363.31   -147088.75 
   24500     1032.438    34.496339      2204118          147  0.007193656   -149483.38   -147039.84 
   24600    992.19586    160.17149      2204118          147  0.007193656   -149342.91   -146994.62 
   24700    987.20603   -19.119515      2204118          147  0.007193656   -149277.26   -146940.78 
   24800    1031.9898    102.94846      2204118          147  0.007193656   -149210.77    -146768.3 
   24900    1028.4207   -24.205056      2204118          147  0.007193656    -149182.4   -146748.37 
   25000    1018.1084   -48.754331      2204118          147  0.007193656   -149300.98   -146891.36 
   25100    1036.8247    260.56599      2204118          147  0.007193656   -149428.35   -146974.44 
   25200    989.87427   -66.753113      2204118          147  0.007193656   -149340.46   -146997.66 
   25300    1003.0588   -127.33802      2204118          147  0.007193656    -149347.2    -146973.2 
   25400    1014.2007    18.024896      2204118          147  0.007193656   -149221.77    -146821.4 
   25500    1046.7339   -61.735161      2204118          147  0.007193656   -149214.86   -146737.49 
   25600    1037.4528   -18.665873      2204118          147  0.007193656    -149285.1   -146829.69 
   25700    975.83473    68.624962      2204118          147  0.007193656   -149212.74   -146903.17 
   25800    921.02101    97.675982      2204118          147  0.007193656   -149119.25   -146939.41 
   25900    974.10555   -15.660745      2204118          147  0.007193656   -149262.09   -146956.61 
   26000    994.77034    126.50222      2204118          147  0.007193656   -149335.17   -146980.78 
   26100    1009.8388    1.8129609      2204118          147  0.007193656   -149429.83   -147039.78 
   26200    953.41152    41.234402      2204118          147  0.007193656   -149306.47   -147049.97 
   26300    991.54816    53.286847      2204118          147  0.007193656   -149312.48   -146965.72 
   26400    1048.0146    64.291989      2204118          147  0.007193656   -149323.57   -146843.17 
   26500    1060.7903    23.703336      2204118          147  0.007193656   -149273.08   -146762.44 
   26600    983.08058    8.6585503      2204118          147  0.007193656   -149155.09   -146828.37 
   26700    1007.0683   -22.985883      2204118          147  0.007193656   -149389.48   -147005.99 
   26800    956.51476    -13.68785      2204118          147  0.007193656   -149309.93   -147046.09 
   26900    970.76574    87.030526      2204118          147  0.007193656   -149257.06   -146959.49 
   27000    1029.6399    170.05711      2204118          147  0.007193656   -149309.68   -146872.76 
   27100     1001.049    -51.14269      2204118          147  0.007193656   -149243.56   -146874.32 
   27200    980.14367   -90.153628      2204118          147  0.007193656   -149336.93   -147017.16 
   27300    975.51854   -30.066655      2204118          147  0.007193656   -149398.98   -147090.16 
   27400    954.38311    33.650769      2204118          147  0.007193656   -149320.14   -147061.34 
   27500    995.36266    160.09504      2204118          147  0.007193656   -149269.43   -146913.64 
   27600    1015.3098   -128.79685      2204118          147  0.007193656   -149266.45   -146863.45 
   27700    1002.0637   -130.17979      2204118          147  0.007193656   -149282.62   -146910.97 
   27800    1027.0431     -212.081      2204118          147  0.007193656   -149352.33   -146921.56 
   27900    1016.9071   -41.969573      2204118          147  0.007193656   -149364.43   -146957.65 
   28000    1024.9452     158.0829      2204118          147  0.007193656    -149454.1    -147028.3 
   28100    937.15459    179.51692      2204118          147  0.007193656   -149367.19   -147149.16 
   28200     972.9871   -13.858184      2204118          147  0.007193656   -149455.99   -147153.16 
   28300    968.37412   -66.998445      2204118          147  0.007193656   -149276.37   -146984.45 
   28400    1096.8509   -95.054494      2204118          147  0.007193656    -149493.9   -146897.92 
   28500    1054.1517    180.28964      2204118          147  0.007193656   -149394.76   -146899.83 
   28600    970.51139    10.029016      2204118          147  0.007193656   -149298.23   -147001.26 
   28700    1031.7159    26.136358      2204118          147  0.007193656   -149516.47   -147074.65 
   28800    951.55751   -116.56997      2204118          147  0.007193656   -149398.68   -147146.57 
   28900    948.02638   -166.27269      2204118          147  0.007193656   -149368.59   -147124.83 
   29000    965.98517    98.788214      2204118          147  0.007193656   -149241.77   -146955.51 
   29100    1029.0948    99.307207      2204118          147  0.007193656   -149287.92    -146852.3 
   29200    992.45393    74.557827      2204118          147  0.007193656   -149245.97   -146897.07 
   29300    980.59043    18.644364      2204118          147  0.007193656   -149330.66   -147009.83 
   29400    969.55581   -19.195325      2204118          147  0.007193656   -149355.47   -147060.76 
   29500    1020.5471    51.322049      2204118          147  0.007193656   -149403.85   -146988.46 
   29600    1031.6876    191.04377      2204118          147  0.007193656   -149208.36    -146766.6 
   29700    1050.2492    50.983819      2204118          147  0.007193656   -149285.29    -146799.6 
   29800    1006.3938    -108.9788      2204118          147  0.007193656   -149314.25   -146932.36 
   29900    1024.1452   -93.854052      2204118          147  0.007193656   -149432.02   -147008.11 
   30000    969.78588   -57.653899      2204118          147  0.007193656   -149302.06   -147006.81 
   30100    1014.8948   -18.296053      2204118          147  0.007193656   -149307.44   -146905.42 
   30200    1085.0167   -71.850997      2204118          147  0.007193656   -149297.48    -146729.5 
   30300    1049.4381   -146.29668      2204118          147  0.007193656   -149203.57    -146719.8 
   30400    1082.5688    23.452838      2204118          147  0.007193656   -149364.48    -146802.3 
   30500    988.94734   -13.435152      2204118          147  0.007193656   -149229.45   -146888.85 
   30600    985.27278   -8.4578356      2204118          147  0.007193656   -149306.99   -146975.09 
   30700    1016.4514    14.605252      2204118          147  0.007193656   -149420.27   -147014.57 
   30800    958.92845    25.452066      2204118          147  0.007193656   -149290.06   -147020.51 
   30900    986.51971   -19.823164      2204118          147  0.007193656   -149281.81   -146946.95 
   31000    1021.0553    59.764742      2204118          147  0.007193656   -149222.72   -146806.12 
   31100    1023.5268   -72.225797      2204118          147  0.007193656   -149171.51   -146749.07 
   31200    1000.3877    57.137067      2204118          147  0.007193656   -149244.76   -146877.08 
   31300    1023.1449   -27.298574      2204118          147  0.007193656    -149402.5   -146980.96 
   31400    1044.9885   -14.463211      2204118          147  0.007193656   -149427.71   -146954.47 
   31500    985.20767   -16.710422      2204118          147  0.007193656   -149301.33   -146969.58 
   31600    988.22438   -11.235149      2204118          147  0.007193656   -149307.27   -146968.37 
   31700    978.55671   -18.748494      2204118          147  0.007193656   -149218.38   -146902.37 
   31800    1061.1607    26.604834      2204118          147  0.007193656   -149347.62   -146836.11 
   31900     1030.735     40.35548      2204118          147  0.007193656    -149274.4   -146834.89 
   32000    1031.1362   -3.3215376      2204118          147  0.007193656   -149366.62   -146926.16 
   32100    990.59182    121.60971      2204118          147  0.007193656   -149412.92   -147068.42 
   32200    998.59824   -75.796374      2204118          147  0.007193656   -149443.69   -147080.25 
   32300    974.87665   -71.370864      2204118          147  0.007193656   -149309.39   -147002.09 
   32400    1003.4988   -48.015313      2204118          147  0.007193656    -149239.5   -146864.45 
   32500    1007.1617   -55.299265      2204118          147  0.007193656   -149218.78   -146835.06 
   32600    1018.1966    130.95819      2204118          147  0.007193656   -149275.22   -146865.39 
   32700    1006.1564    28.391022      2204118          147  0.007193656   -149330.95   -146949.61 
   32800    957.90029   -15.870192      2204118          147  0.007193656   -149308.21   -147041.08 
   32900    1043.6209   -95.333311      2204118          147  0.007193656   -149478.33   -147008.33 
   33000    985.30876    180.47259      2204118          147  0.007193656   -149294.09   -146962.09 
   33100    1000.6903   -96.729886      2204118          147  0.007193656   -149321.19   -146952.79 
   33200    983.64053     70.28457      2204118          147  0.007193656   -149288.66   -146960.61 
   33300    999.26596     -17.1084      2204118          147  0.007193656   -149352.63    -146987.6 
   33400    998.53836    225.55078      2204118          147  0.007193656   -149452.16   -147088.86 
   33500    925.54138    17.847358      2204118          147  0.007193656   -149391.97   -147201.43 
   33600    913.51762    116.42137      2204118          147  0.007193656   -149249.88    -147087.8 
   33700    983.80304     -148.003      2204118          147  0.007193656   -149308.35   -146979.92 
   33800    1006.9669   -109.19415      2204118          147  0.007193656   -149324.17   -146940.91 
   33900    1073.1996   -25.972092      2204118          147  0.007193656   -149441.99   -146901.98 
   34000    987.08355   -38.405937      2204118          147  0.007193656   -149299.97   -146963.77 
   34100    957.47206     99.81805      2204118          147  0.007193656   -149365.95   -147099.84 
   34200     964.7169    21.305027      2204118          147  0.007193656   -149420.69   -147137.44 
   34300     952.5895    45.104889      2204118          147  0.007193656      -149270   -147015.45 
   34400    1040.9946   -17.258039      2204118          147  0.007193656   -149393.39    -146929.6 
   34500    1001.0721   -4.8417187      2204118          147  0.007193656   -149295.05   -146925.75 
   34600    951.72509   -70.012437      2204118          147  0.007193656   -149225.81   -146973.31 
   34700    971.00143   -277.56041      2204118          147  0.007193656   -149319.06   -147020.93 
   34800    942.39063    92.650537      2204118          147  0.007193656   -149269.94   -147039.53 
   34900    1006.0542    156.38771      2204118          147  0.007193656   -149359.45   -146978.35 
   35000    1022.3279    111.66749      2204118          147  0.007193656   -149245.64   -146826.03 
   35100    1033.1644   -28.319063      2204118          147  0.007193656   -149270.69   -146825.44 
   35200    983.15164    13.003602      2204118          147  0.007193656   -149264.09    -146937.2 
   35300     1002.238   -107.35068      2204118          147  0.007193656   -149381.88   -147009.82 
   35400    985.61599    186.78231      2204118          147  0.007193656   -149342.99   -147010.27 
   35500    1019.5231   -67.077204      2204118          147  0.007193656      -149395   -146982.03 
   35600    1020.1758     57.99491      2204118          147  0.007193656   -149367.25   -146952.73 
   35700    986.26791    15.181205      2204118          147  0.007193656    -149316.7   -146982.44 
   35800    983.36868   -209.12526      2204118          147  0.007193656   -149436.35   -147108.95 
   35900    1033.7799    54.955291      2204118          147  0.007193656   -149614.05   -147167.34 
   36000     945.2145    104.41538      2204118          147  0.007193656   -149327.89   -147090.79 
   36100    1080.0624    20.438261      2204118          147  0.007193656   -149458.49   -146902.24 
   36200    1027.7603   -81.718815      2204118          147  0.007193656   -149344.77    -146912.3 
   36300    949.18229    -158.5454      2204118          147  0.007193656   -149263.26   -147016.77 
   36400     968.5808    130.11114      2204118          147  0.007193656   -149381.22   -147088.82 
   36500    994.17897    55.754243      2204118          147  0.007193656   -149422.74   -147069.75 
   36600    1030.2037    20.838545      2204118          147  0.007193656   -149319.36   -146881.11 
   36700    1044.2356   -61.103417      2204118          147  0.007193656   -149280.38   -146808.92 
   36800    961.31359   -218.59963      2204118          147  0.007193656   -149210.61   -146935.41 
   36900    989.95682   -129.07785      2204118          147  0.007193656   -149370.44   -147027.44 
   37000    975.99978    44.438698      2204118          147  0.007193656   -149358.87   -147048.91 
   37100    991.49799    156.84304      2204118          147  0.007193656   -149396.23   -147049.59 
   37200    968.60586    152.11412      2204118          147  0.007193656   -149321.45   -147028.99 
   37300    968.55929   -21.505646      2204118          147  0.007193656   -149255.12   -146962.77 
   37400     1032.022   -49.248131      2204118          147  0.007193656   -149332.57   -146890.02 
   37500    1044.8038    30.786863      2204118          147  0.007193656   -149391.97   -146919.17 
   37600    979.41748   -83.954236      2204118          147  0.007193656   -149373.55    -147055.5 
   37700    980.01169   -106.80975      2204118          147  0.007193656    -149430.1   -147110.65 
   37800    956.37194   -30.535859      2204118          147  0.007193656   -149356.69   -147093.18 
   37900    1001.6108   -30.745966      2204118          147  0.007193656   -149243.91   -146873.34 
   38000    1001.8718   -28.860539      2204118          147  0.007193656   -149222.64   -146851.45 
   38100    1024.1893    17.570495      2204118          147  0.007193656   -149371.11    -146947.1 
   38200    1003.4481   -84.119598      2204118          147  0.007193656   -149423.19   -147048.26 
   38300    1011.4633    109.14027      2204118          147  0.007193656   -149468.54   -147074.64 
   38400    966.70269    95.130892      2204118          147  0.007193656   -149311.47   -147023.51 
   38500    990.70461    139.45123      2204118          147  0.007193656   -149333.32   -146988.56 
   38600    1015.8826   -106.58445      2204118          147  0.007193656   -149392.91   -146988.55 
   38700    969.00549    89.873663      2204118          147  0.007193656   -149342.09   -147048.69 
   38800    987.53353    21.173674      2204118          147  0.007193656   -149467.64   -147130.39 
   38900    925.37897    58.792228      2204118          147  0.007193656   -149492.86   -147302.71 
   39000    968.24566   -35.925599      2204118          147  0.007193656   -149504.25   -147212.64 
   39100     977.1463    28.622345      2204118          147  0.007193656   -149373.31   -147060.63 
   39200    1017.1009    141.88525      2204118          147  0.007193656   -149374.38   -146967.14 
   39300    990.36874   -161.35729      2204118          147  0.007193656   -149361.83   -147017.86 
   39400    1004.1913   -44.911351      2204118          147  0.007193656   -149468.22   -147091.54 
   39500    997.85335   -89.625251      2204118          147  0.007193656    -149537.6   -147175.92 
   39600    1000.5623    18.740543      2204118          147  0.007193656   -149558.06   -147189.97 
   39700    1013.2083    92.421598      2204118          147  0.007193656   -149423.22    -147025.2 
   39800    1020.1317    31.832223      2204118          147  0.007193656   -149356.91    -146942.5 
   39900    1041.4762    1.9097506      2204118          147  0.007193656      -149408   -146943.07 
   40000    954.27532   -35.982855      2204118          147  0.007193656   -149317.08   -147058.54 
   40100    962.38982    68.875537      2204118          147  0.007193656   -149383.66   -147105.91 
   40200    988.40835    35.881025      2204118          147  0.007193656   -149412.04   -147072.71 
   40300    1024.3013    143.30984      2204118          147  0.007193656   -149450.69   -147026.41 
   40400    1002.7835   -14.257577      2204118          147  0.007193656   -149366.66   -146993.31 
   40500    980.32407   -162.01644      2204118          147  0.007193656   -149309.23   -146989.03 
   40600    959.30035   -48.358209      2204118          147  0.007193656   -149350.72   -147080.29 
   40700    983.40876    72.090677      2204118          147  0.007193656   -149510.96   -147183.46 
   40800     934.4413   -57.295183      2204118          147  0.007193656   -149364.28   -147152.68 
   40900    1002.9854    199.14111      2204118          147  0.007193656   -149371.24   -146997.41 
   41000    1022.5359   -47.273598      2204118          147  0.007193656   -149369.35   -146949.25 
   41100    1002.8589    27.736454      2204118          147  0.007193656   -149339.25   -146965.73 
   41200    969.81252   -92.904884      2204118          147  0.007193656    -149371.4   -147076.08 
   41300     986.7141    64.026302      2204118          147  0.007193656   -149581.36   -147246.04 
   41400    969.65639    142.22708      2204118          147  0.007193656    -149539.4   -147244.45 
   41500    966.59057    24.576595      2204118          147  0.007193656   -149457.24   -147169.55 
   41600    999.77853    30.064483      2204118          147  0.007193656   -149423.35   -147057.11 
   41700    998.04965    95.340481      2204118          147  0.007193656   -149288.36   -146926.21 
   41800    1017.7095   -73.216636      2204118          147  0.007193656   -149308.82   -146900.14 
   41900     1003.559    7.4698594      2204118          147  0.007193656   -149370.98   -146995.79 
   42000    986.06638   -35.528284      2204118          147  0.007193656   -149470.18   -147136.39 
   42100    963.85185   -39.266475      2204118          147  0.007193656   -149450.18   -147168.97 
   42200    970.95154   -155.71574      2204118          147  0.007193656   -149413.28   -147115.27 
   42300    1034.8826   -84.453982      2204118          147  0.007193656   -149508.16   -147058.84 
   42400    988.64138    3.1333186      2204118          147  0.007193656    -149298.5   -146958.62 
   42500    1011.8649    30.410449      2204118          147  0.007193656   -149309.31   -146914.46 
   42600    1028.6753   -42.790852      2204118          147  0.007193656   -149375.51   -146940.88 
   42700    979.41982   -31.671587      2204118          147  0.007193656   -149443.89   -147125.83 
   42800    1049.8799   -29.953108      2204118          147  0.007193656   -149641.35   -147156.53 
   42900     1003.588    17.674577      2204118          147  0.007193656   -149454.33   -147079.08 
   43000    1044.4362   -1.7971111      2204118          147  0.007193656    -149403.8   -146931.87 
   43100    1033.7641    97.850225      2204118          147  0.007193656   -149354.07   -146907.39 
   43200    1033.0383   -22.697143      2204118          147  0.007193656   -149410.31   -146965.35 
   43300    963.85843   -13.578492      2204118          147  0.007193656   -149334.61   -147053.38 
   43400     999.6716    -85.11605      2204118          147  0.007193656   -149450.95   -147084.97 
   43500    931.87666   -13.607265      2204118          147  0.007193656    -149253.5   -147047.97 
   43600    1064.5114   -60.196747      2204118          147  0.007193656   -149509.16   -146989.71 
   43700    1015.3825      120.473      2204118          147  0.007193656   -149387.88   -146984.71 
   43800    1041.5928    46.809398      2204118          147  0.007193656   -149476.94   -147011.73 
   43900    963.73507   -174.13674      2204118          147  0.007193656   -149406.21   -147125.27 
   44000    959.56824   -146.50091      2204118          147  0.007193656   -149453.48   -147182.41 
   44100    1015.6845   -132.81768      2204118          147  0.007193656   -149463.67   -147059.78 
   44200    980.91986     -64.5674      2204118          147  0.007193656    -149257.6   -146935.99 
   44300    1009.7726    197.84605      2204118          147  0.007193656   -149322.89      -146933 
   44400    994.33215   -95.442544      2204118          147  0.007193656   -149360.66   -147007.32 
   44500    942.69063    -21.42356      2204118          147  0.007193656   -149348.67   -147117.55 
   44600    964.79142    232.30395      2204118          147  0.007193656   -149434.79   -147151.36 
   44700    990.79108   -24.776469      2204118          147  0.007193656   -149313.38   -146968.41 
   44800    1020.8532    44.189292      2204118          147  0.007193656   -149261.64   -146845.52 
   44900    1026.6344   -101.33412      2204118          147  0.007193656   -149300.44   -146870.64 
   45000    1003.9343    53.038554      2204118          147  0.007193656   -149395.33   -147019.25 
   45100    994.26319   -100.74439      2204118          147  0.007193656   -149452.63   -147099.44 
   45200    1001.3241    73.627839      2204118          147  0.007193656   -149444.26   -147074.37 
   45300    971.31607    10.087711      2204118          147  0.007193656    -149241.5   -146942.62 
   45400     1071.575    45.058327      2204118          147  0.007193656   -149358.63   -146822.46 
   45500    1040.1988   -29.518682      2204118          147  0.007193656   -149313.34   -146851.44 
   45600    1010.9658   -95.764057      2204118          147  0.007193656   -149461.02    -147068.3 
   45700    998.94903   -65.740849      2204118          147  0.007193656   -149472.25   -147107.97 
   45800    968.80787    209.01789      2204118          147  0.007193656   -149374.09   -147081.15 
   45900    1023.5613    19.053801      2204118          147  0.007193656   -149415.28   -146992.75 
   46000    1018.2758     22.07026      2204118          147  0.007193656   -149311.85   -146901.84 
   46100     1040.344    -114.5841      2204118          147  0.007193656    -149374.4   -146912.15 
   46200    982.44726   -107.39371      2204118          147  0.007193656   -149436.63   -147111.41 
   46300     997.8627    226.28497      2204118          147  0.007193656   -149517.03   -147155.32 
   46400    996.48455    41.874656      2204118          147  0.007193656   -149440.75   -147082.31 
   46500    1022.6157   -46.032656      2204118          147  0.007193656   -149392.76   -146972.47 
   46600    988.06062    -99.33305      2204118          147  0.007193656   -149281.68   -146943.18 
   46700    992.68395   -58.473928      2204118          147  0.007193656   -149309.71   -146960.26 
   46800    1032.0936    85.027156      2204118          147  0.007193656    -149448.6   -147005.88 
   46900    1054.9558     108.3422      2204118          147  0.007193656   -149534.66   -147037.83 
   47000    980.12779   -21.821094      2204118          147  0.007193656   -149390.74   -147071.01 
   47100    1015.9518   -87.315216      2204118          147  0.007193656   -149494.83   -147090.31 
   47200      989.432   -44.564189      2204118          147  0.007193656   -149408.53   -147066.78 
   47300    993.66231   -8.5885107      2204118          147  0.007193656   -149311.64   -146959.87 
   47400    997.84248    122.47065      2204118          147  0.007193656   -149226.41   -146864.76 
   47500    1045.1999    4.7890694      2204118          147  0.007193656   -149380.56   -146906.82 
   47600      1007.14   -31.168195      2204118          147  0.007193656   -149476.58   -147092.92 
   47700    989.41799    -191.8255      2204118          147  0.007193656   -149424.56   -147082.84 
   47800    991.73141   -53.955404      2204118          147  0.007193656   -149336.96   -146989.76 
   47900    1015.0768   -64.039807      2204118          147  0.007193656   -149296.04   -146893.59 
   48000    975.09112    64.095025      2204118          147  0.007193656   -149221.65   -146913.84 
   48100    972.12791   -50.962567      2204118          147  0.007193656   -149386.54   -147085.75 
   48200    980.07495   -139.01473      2204118          147  0.007193656    -149498.6      -147179 
   48300    953.08823   -75.963892      2204118          147  0.007193656   -149357.81   -147102.08 
   48400    1038.5477    24.855589      2204118          147  0.007193656   -149453.46   -146995.46 
   48500     986.7426   -2.4411072      2204118          147  0.007193656   -149279.61   -146944.22 
   48600    1035.6708    218.14671      2204118          147  0.007193656   -149320.34   -146869.16 
   48700    1024.3506   -22.215136      2204118          147  0.007193656   -149251.31   -146826.91 
   48800    1012.7859   -12.225038      2204118          147  0.007193656   -149360.35   -146963.33 
   48900    1028.8433   -76.291813      2204118          147  0.007193656   -149506.53    -147071.5 
   49000    971.86089     140.2316      2204118          147  0.007193656   -149393.14   -147092.98 
   49100    1029.4339    143.25651      2204118          147  0.007193656   -149481.18   -147044.75 
   49200    1051.3462   -27.213142      2204118          147  0.007193656   -149368.84   -146880.55 
   49300    1038.9585   -64.875998      2204118          147  0.007193656    -149287.1   -146828.13 
   49400    1021.4109   -61.343932      2204118          147  0.007193656   -149420.26   -147002.82 
   49500    970.59926   -179.26005      2204118          147  0.007193656   -149383.93   -147086.75 
   49600    1014.3929    123.05895      2204118          147  0.007193656   -149465.15   -147064.33 
   49700     974.4989    150.61704      2204118          147  0.007193656   -149330.52   -147024.11 
   49800    1006.6441    59.600497      2204118          147  0.007193656   -149373.98   -146991.49 
   49900    990.32297   -60.384551      2204118          147  0.007193656   -149365.31   -147021.45 
   50000    1017.6837   -128.08479      2204118          147  0.007193656   -149496.04   -147087.43 
   50100    948.74089    82.137873      2204118          147  0.007193656    -149406.6   -147161.15 
   50200    997.22543     118.0588      2204118          147  0.007193656   -149449.15   -147088.96 
   50300    977.96012    105.59301      2204118          147  0.007193656   -149248.63   -146934.03 
   50400    983.18833    195.17649      2204118          147  0.007193656   -149252.77    -146925.8 
   50500    1009.1931   -73.602932      2204118          147  0.007193656   -149383.47   -146994.95 
   50600     1021.351    96.047148      2204118          147  0.007193656   -149451.96   -147034.67 
   50700    926.30303   -87.887456      2204118          147  0.007193656   -149404.51   -147212.17 
   50800    962.84147     149.5245      2204118          147  0.007193656   -149521.17   -147242.35 
   50900    1016.6819    15.308968      2204118          147  0.007193656   -149521.49   -147115.24 
   51000     981.4721   -18.983507      2204118          147  0.007193656   -149344.05   -147021.13 
   51100    1016.2124   -126.99655      2204118          147  0.007193656   -149377.25   -146972.12 
   51200    1011.7305    127.98977      2204118          147  0.007193656   -149370.41   -146975.88 
   51300     1012.782    123.76072      2204118          147  0.007193656   -149398.71    -147001.7 
   51400    1004.1528   -33.182226      2204118          147  0.007193656    -149520.3   -147143.71 
   51500    949.61569   -131.04425      2204118          147  0.007193656   -149450.57   -147203.06 
   51600    959.43274   -18.560537      2204118          147  0.007193656   -149361.76   -147091.01 
   51700    994.94588    54.003297      2204118          147  0.007193656   -149335.01    -146980.2 
   51800    1040.4673    42.213733      2204118          147  0.007193656   -149434.86   -146972.32 
   51900    1004.2874    209.82992      2204118          147  0.007193656   -149398.96   -147022.05 
   52000    1000.2593   -73.360635      2204118          147  0.007193656   -149508.63   -147141.25 
   52100    971.78491   -206.52525      2204118          147  0.007193656   -149578.58   -147278.59 
   52200    960.51348   -27.139752      2204118          147  0.007193656   -149511.53   -147238.22 
   52300    1030.7671    31.015038      2204118          147  0.007193656   -149459.05   -147019.46 
   52400    1041.5188    189.75489      2204118          147  0.007193656   -149419.49   -146954.46 
   52500    992.15876   -95.877902      2204118          147  0.007193656   -149334.35   -146986.15 
   52600    1007.2663   -177.49576      2204118          147  0.007193656   -149444.14   -147060.18 
   52700    967.70607   -43.530555      2204118          147  0.007193656   -149454.79   -147164.46 
   52800    997.38746    161.21463      2204118          147  0.007193656   -149534.79   -147174.21 
   52900    1041.0676    275.33381      2204118          147  0.007193656   -149489.04   -147025.07 
   53000    1005.3803   -30.926269      2204118          147  0.007193656   -149285.04   -146905.54 
   53100     1020.647   -190.31976      2204118          147  0.007193656   -149334.14   -146918.51 
   53200    972.39794    31.914183      2204118          147  0.007193656   -149323.25   -147021.82 
   53300    965.74141    52.977727      2204118          147  0.007193656   -149422.52   -147136.84 
   53400    977.35318    67.411447      2204118          147  0.007193656   -149454.06   -147140.89 
   53500    968.92595    34.219465      2204118          147  0.007193656   -149404.04   -147110.83 
   53600    995.25922   -136.69572      2204118          147  0.007193656   -149408.61   -147053.07 
   53700    1029.2393   -172.55209      2204118          147  0.007193656   -149373.47    -146937.5 
   53800    1042.2132    83.721569      2204118          147  0.007193656   -149305.59   -146838.92 
   53900    1053.8834    66.636133      2204118          147  0.007193656   -149403.17   -146908.88 
   54000    946.64355    131.42597      2204118          147  0.007193656   -149344.17   -147103.69 
   54100     938.1279   -59.944208      2204118          147  0.007193656   -149361.85   -147141.53 
   54200    1010.8877   -94.391424      2204118          147  0.007193656   -149491.55   -147099.02 
   54300    1011.3795    112.20435      2204118          147  0.007193656   -149364.89    -146971.2 
   54400    1042.4139    230.44772      2204118          147  0.007193656   -149404.54   -146937.39 
   54500    965.56846    150.64747      2204118          147  0.007193656   -149350.46   -147065.19 
   54600    978.18693   -136.83564      2204118          147  0.007193656   -149512.98   -147197.85 
   54700    940.08295   -133.58783      2204118          147  0.007193656   -149370.61   -147145.66 
   54800    967.53364   -20.532514      2204118          147  0.007193656   -149285.92      -146996 
   54900    972.16971     29.85586      2204118          147  0.007193656   -149254.27   -146953.37 
   55000    1033.5823   0.15227177      2204118          147  0.007193656   -149420.59   -146974.35 
   55100    979.43219    89.328351      2204118          147  0.007193656    -149398.2   -147080.12 
   55200     953.7819    38.903454      2204118          147  0.007193656   -149437.52   -147180.15 
   55300    985.70503    -9.045364      2204118          147  0.007193656   -149465.22   -147132.29 
   55400    965.07872   -39.941244      2204118          147  0.007193656    -149218.1   -146933.99 
   55500     1065.953    9.6111082      2204118          147  0.007193656   -149419.78   -146896.92 
   55600    1021.2633    270.33294      2204118          147  0.007193656   -149450.23   -147033.14 
   55700    969.22281    12.696959      2204118          147  0.007193656   -149417.41   -147123.49 
   55800    1005.3293   -129.65427      2204118          147  0.007193656    -149479.7   -147100.32 
   55900    989.61359   -4.0976368      2204118          147  0.007193656   -149284.46   -146942.27 
   56000    1050.1248   -76.203494      2204118          147  0.007193656   -149338.52   -146853.13 
   56100    1021.4769    53.741135      2204118          147  0.007193656   -149360.06   -146942.47 
   56200    1028.9011   -120.35875      2204118          147  0.007193656    -149483.3   -147048.14 
   56300    994.94265   -89.629757      2204118          147  0.007193656   -149456.28   -147101.48 
   56400    1008.3394   -95.345315      2204118          147  0.007193656   -149444.83   -147058.33 
   56500    1024.9354   -151.75543      2204118          147  0.007193656   -149318.32   -146892.54 
   56600    1048.5308    110.65819      2204118          147  0.007193656   -149337.14   -146855.52 
   56700    1020.4494    172.82608      2204118          147  0.007193656   -149320.14   -146904.98 
   56800    969.04137    215.87565      2204118          147  0.007193656   -149321.84   -147028.35 
   56900    958.75159   -8.5240489      2204118          147  0.007193656   -149368.66   -147099.52 
   57000    973.91022   -96.162052      2204118          147  0.007193656   -149394.91   -147089.89 
   57100    1020.2114    -68.53831      2204118          147  0.007193656   -149348.62   -146934.02 
   57200    1066.1585    37.494431      2204118          147  0.007193656   -149348.26   -146824.91 
   57300    1034.0468    257.49543      2204118          147  0.007193656   -149339.68   -146892.34 
   57400    1018.6583    52.274178      2204118          147  0.007193656   -149385.75   -146974.82 
   57500    976.03034    94.045226      2204118          147  0.007193656   -149362.47   -147052.44 
   57600    1008.7591   -74.633621      2204118          147  0.007193656   -149476.63   -147089.13 
   57700     1028.564   -31.593265      2204118          147  0.007193656   -149496.42   -147062.05 
   57800    1023.4683    139.22539      2204118          147  0.007193656   -149304.79   -146882.49 
   57900    1083.6182    44.233029      2204118          147  0.007193656   -149394.93   -146830.26 
   58000    1020.5271   -59.245144      2204118          147  0.007193656    -149367.2   -146951.85 
   58100    981.55168   -71.893399      2204118          147  0.007193656   -149354.83   -147031.73 
   58200    1008.4831    85.355283      2204118          147  0.007193656   -149438.61   -147051.77 
   58300    1004.7937    64.482468      2204118          147  0.007193656   -149411.96   -147033.85 
   58400    1040.2926     136.9764      2204118          147  0.007193656   -149486.14   -147024.01 
   58500    957.86593   -116.80716      2204118          147  0.007193656   -149301.06   -147034.02 
   58600    994.87219    -243.5387      2204118          147  0.007193656   -149434.67   -147080.05 
   58700    975.44412   -139.00781      2204118          147  0.007193656   -149402.15    -147093.5 
   58800    982.69113   -27.004399      2204118          147  0.007193656   -149423.68   -147097.88 
   58900    995.88474    149.66829      2204118          147  0.007193656   -149369.65   -147012.63 
   59000     1034.205    120.79792      2204118          147  0.007193656   -149366.53   -146918.81 
   59100    985.07614   -84.584438      2204118          147  0.007193656   -149295.78   -146964.33 
   59200    952.04451   -80.608782      2204118          147  0.007193656   -149383.32   -147130.06 
   59300    959.20157     10.94419      2204118          147  0.007193656   -149415.91    -147145.7 
   59400    987.44135    58.798012      2204118          147  0.007193656   -149432.22   -147095.18 
   59500     1019.748    127.24342      2204118          147  0.007193656   -149368.66   -146955.16 
   59600    1032.2666    129.40858      2204118          147  0.007193656   -149336.15   -146893.02 
   59700    1035.3044   -29.086323      2204118          147  0.007193656   -149388.81   -146938.49 
   59800    973.00448    145.95517      2204118          147  0.007193656   -149286.46   -146983.59 
   59900    975.23969   -207.19179      2204118          147  0.007193656   -149376.84   -147068.68 
   60000    1013.6375    146.00557      2204118          147  0.007193656   -149539.21   -147140.17 
   60100    978.49832   -82.357725      2204118          147  0.007193656   -149502.29   -147186.42 
   60200    931.67465   -16.156777      2204118          147  0.007193656   -149259.92   -147054.87 
   60300    1009.1736    -66.71151      2204118          147  0.007193656   -149330.12   -146941.65 
   60400    1016.8315    97.366629      2204118          147  0.007193656   -149374.73   -146968.13 
   60500    1015.0008    118.07224      2204118          147  0.007193656   -149431.42   -147029.15 
   60600    982.45666   -94.065539      2204118          147  0.007193656   -149522.58   -147197.34 
   60700    966.51117   -56.832633      2204118          147  0.007193656   -149533.12   -147245.62 
   60800    1004.3159   -6.3031413      2204118          147  0.007193656   -149560.77   -147183.79 
   60900    955.55037   -137.82259      2204118          147  0.007193656   -149355.64   -147094.08 
   61000    1005.6837    12.360586      2204118          147  0.007193656   -149408.56   -147028.35 
   61100     992.2941   -60.140481      2204118          147  0.007193656   -149315.07   -146966.54 
   61200    1014.5399   -147.81231      2204118          147  0.007193656   -149337.51   -146936.34 
   61300    963.99819    178.59034      2204118          147  0.007193656   -149279.67   -146998.12 
   61400    982.59368   -71.696305      2204118          147  0.007193656   -149462.42   -147136.85 
   61500    1007.2183   -55.092655      2204118          147  0.007193656   -149525.84      -147142 
   61600     962.3209   -37.552462      2204118          147  0.007193656   -149349.47   -147071.89 
   61700    1031.5568    5.9068674      2204118          147  0.007193656   -149364.46   -146923.01 
   61800    998.42411    160.50964      2204118          147  0.007193656   -149221.37   -146858.33 
   61900    1027.1176    100.58844      2204118          147  0.007193656   -149371.19   -146940.24 
   62000    1007.7437    211.55138      2204118          147  0.007193656   -149381.35   -146996.26 
   62100    943.81058    21.845376      2204118          147  0.007193656   -149284.78      -147051 
   62200      991.128   -31.893918      2204118          147  0.007193656   -149442.53   -147096.76 
   62300    968.36092     9.321796      2204118          147  0.007193656   -149384.33   -147092.45 
   62400    1003.4119    33.018217      2204118          147  0.007193656   -149414.58   -147039.74 
   62500    1053.4577     26.05334      2204118          147  0.007193656    -149428.2   -146934.91 
   62600     1033.061   -39.352161      2204118          147  0.007193656   -149384.18   -146939.17 
   62700    973.47053     -60.3377      2204118          147  0.007193656   -149401.01   -147097.04 
   62800    969.71403   -10.907305      2204118          147  0.007193656   -149451.38    -147156.3 
   62900    1010.5389    231.73617      2204118          147  0.007193656   -149490.92   -147099.21 
   63000    986.68762    130.50194      2204118          147  0.007193656   -149370.84   -147035.59 
   63100     1043.909   -71.666864      2204118          147  0.007193656   -149432.48    -146961.8 
   63200    1000.3963   -19.430202      2204118          147  0.007193656   -149138.53   -146770.83 
   63300    1048.2043   -145.35386      2204118          147  0.007193656   -149271.51   -146790.66 
   63400    1044.5642   -34.697396      2204118          147  0.007193656   -149413.87   -146941.63 
   63500    975.37351    175.05312      2204118          147  0.007193656   -149351.29   -147042.81 
   63600    997.45967   -16.157167      2204118          147  0.007193656   -149460.83   -147100.07 
   63700    977.07293   -27.347717      2204118          147  0.007193656   -149445.46   -147132.96 
   63800    985.66176   -190.08335      2204118          147  0.007193656   -149410.92   -147078.09 
   63900    1037.7242   -100.43499      2204118          147  0.007193656   -149365.28   -146909.23 
   64000    1052.7446    83.099555      2204118          147  0.007193656   -149369.38   -146877.79 
   64100    973.60726    16.213964      2204118          147  0.007193656   -149320.73   -147016.43 
   64200    973.97923    64.328091      2204118          147  0.007193656   -149400.28   -147095.11 
   64300    1008.4272   -200.21529      2204118          147  0.007193656   -149478.21    -147091.5 
   64400    968.07538   -24.760063      2204118          147  0.007193656   -149326.15   -147034.94 
   64500    1041.7738    64.001006      2204118          147  0.007193656   -149345.81   -146880.18 
   64600    1025.1764    159.36959      2204118          147  0.007193656   -149235.35      -146809 
   64700     1035.706    48.316777      2204118          147  0.007193656   -149445.89   -146994.62 
   64800    962.53162   -129.30649      2204118          147  0.007193656   -149365.44   -147087.36 
   64900    1034.0824    57.333628      2204118          147  0.007193656   -149523.73    -147076.3 
   65000    980.12456     170.5756      2204118          147  0.007193656   -149387.13   -147067.41 
   65100    1004.4969    85.379186      2204118          147  0.007193656   -149386.27   -147008.87 
   65200    999.44439    16.631035      2204118          147  0.007193656   -149301.23   -146935.78 
   65300    992.02259   -256.24232      2204118          147  0.007193656   -149347.75   -146999.87 
   65400    945.50511    122.24112      2204118          147  0.007193656   -149367.39    -147129.6 
   65500    1000.0357   -139.86096      2204118          147  0.007193656   -149544.47   -147177.62 
   65600     1034.979    29.050479      2204118          147  0.007193656   -149560.36    -147110.8 
   65700    1042.4146    16.766867      2204118          147  0.007193656   -149375.47   -146908.32 
   65800    1032.3286      64.1265      2204118          147  0.007193656   -149361.05   -146917.77 
   65900     936.1218   -15.466444      2204118          147  0.007193656   -149253.62   -147038.05 
   66000    1010.2058   -62.137092      2204118          147  0.007193656   -149509.46   -147118.54 
   66100    972.58464   -59.062512      2204118          147  0.007193656   -149441.11   -147139.23 
   66200     1025.102   -199.40515      2204118          147  0.007193656    -149428.6   -147002.43 
   66300    1025.3999    49.769878      2204118          147  0.007193656   -149289.95   -146863.08 
   66400    1036.1665    2.3067808      2204118          147  0.007193656   -149371.96    -146919.6 
   66500    1022.5312   -55.913186      2204118          147  0.007193656   -149437.65   -147017.56 
   66600    952.85772    85.360411      2204118          147  0.007193656   -149312.47   -147057.28 
   66700    1046.9139   -81.747982      2204118          147  0.007193656   -149552.24   -147074.44 
   66800    1013.3661    129.01841      2204118          147  0.007193656   -149447.09   -147048.69 
   66900    1036.4562   -63.060851      2204118          147  0.007193656   -149488.74   -147035.69 
   67000    1017.9117   -98.374915      2204118          147  0.007193656   -149452.78   -147043.62 
   67100      1008.26   -105.61927      2204118          147  0.007193656   -149438.49   -147052.18 
   67200     946.1459   -144.76834      2204118          147  0.007193656    -149297.9    -147058.6 
   67300    995.09687    176.36267      2204118          147  0.007193656   -149343.29   -146988.13 
   67400     1062.693    129.91612      2204118          147  0.007193656   -149524.33   -147009.19 
   67500    1006.3641   -195.55496      2204118          147  0.007193656   -149470.74   -147088.92 
   67600    996.05519   -58.614774      2204118          147  0.007193656   -149480.66   -147123.23 
   67700    882.53602   -184.15181      2204118          147  0.007193656   -149259.82   -147171.07 
   67800    990.46382    170.09611      2204118          147  0.007193656   -149399.43   -147055.24 
   67900    1030.8004    64.689044      2204118          147  0.007193656   -149371.96    -146932.3 
   68000    1040.6639   -42.953852      2204118          147  0.007193656   -149412.92   -146949.92 
   68100     996.3889    -120.5214      2204118          147  0.007193656   -149404.15   -147045.93 
   68200    960.92212   -3.3211274      2204118          147  0.007193656   -149445.91   -147171.63 
   68300    934.44927    30.207584      2204118          147  0.007193656   -149476.23   -147264.61 
   68400    939.08354    107.19345      2204118          147  0.007193656    -149530.5   -147307.91 
   68500    1015.6341    141.35134      2204118          147  0.007193656   -149553.95   -147150.19 
   68600    1002.3388   -127.43414      2204118          147  0.007193656   -149404.35   -147032.05 
   68700    991.20035   -206.15459      2204118          147  0.007193656   -149300.38   -146954.44 
   68800    1054.9731    23.968161      2204118          147  0.007193656   -149374.78   -146877.91 
   68900    1026.9753    45.461841      2204118          147  0.007193656   -149388.73   -146958.12 
   69000    955.49585    212.91993      2204118          147  0.007193656   -149401.55   -147140.12 
   69100    961.35494    -31.38471      2204118          147  0.007193656   -149415.77   -147140.47 
   69200    987.53516    63.136225      2204118          147  0.007193656   -149369.38   -147032.12 
   69300    1036.2731    38.976776      2204118          147  0.007193656   -149382.68   -146930.07 
   69400      992.483   -56.869395      2204118          147  0.007193656   -149313.18   -146964.21 
   69500    969.56061   -5.8684757      2204118          147  0.007193656   -149395.69   -147100.97 
   69600    989.27173    14.922606      2204118          147  0.007193656   -149509.44   -147168.07 
   69700    999.99995   -68.080321      2204118          147  0.007193656    -149483.8   -147117.04 
   69800     1016.356    104.25855      2204118          147  0.007193656   -149435.33   -147029.86 
   69900    1000.2265    33.572892      2204118          147  0.007193656   -149338.48   -146971.18 
   70000    1027.5022    31.235536      2204118          147  0.007193656   -149347.67   -146915.81 
   70100    1033.5763   -115.50621      2204118          147  0.007193656   -149471.06   -147024.83 
   70200    941.21628   -2.0959509      2204118          147  0.007193656   -149389.23   -147161.59 
   70300    1011.4877    77.205256      2204118          147  0.007193656   -149534.85    -147140.9 
   70400    1000.9553   -47.628346      2204118          147  0.007193656    -149363.2   -146994.18 
   70500    1020.4138   -31.226702      2204118          147  0.007193656   -149369.83   -146954.75 
   70600    985.49191   -48.315042      2204118          147  0.007193656   -149326.25   -146993.82 
   70700    981.80843   -141.89452      2204118          147  0.007193656   -149335.49   -147011.78 
   70800    992.35777    105.97783      2204118          147  0.007193656   -149418.41   -147069.74 
   70900     957.3863    8.9620789      2204118          147  0.007193656   -149472.07   -147206.16 
   71000    1018.0032     101.1562      2204118          147  0.007193656   -149586.73   -147177.36 
   71100    1002.5967   -65.006456      2204118          147  0.007193656   -149406.08   -147033.17 
   71200    958.31109   -189.37678      2204118          147  0.007193656   -149240.88   -146972.79 
   71300    997.45411   -87.180243      2204118          147  0.007193656   -149311.75   -146951.01 
   71400     1002.563      89.0997      2204118          147  0.007193656   -149349.36   -146976.53 
   71500    984.93241    206.32714      2204118          147  0.007193656   -149453.85   -147122.75 
   71600     1012.704   -140.78176      2204118          147  0.007193656   -149627.97   -147231.14 
   71700    993.65663    57.733999      2204118          147  0.007193656   -149493.95    -147142.2 
   71800    949.24723   -83.359663      2204118          147  0.007193656   -149276.25   -147029.61 
   71900    1017.3065   -80.432787      2204118          147  0.007193656    -149383.2   -146975.47 
   72000    995.96474    72.262987      2204118          147  0.007193656   -149360.05   -147002.84 
   72100     962.3074     76.35778      2204118          147  0.007193656   -149409.55   -147131.99 
   72200    966.07714   -9.2101298      2204118          147  0.007193656   -149538.46   -147251.99 
   72300    967.10366    51.241611      2204118          147  0.007193656    -149462.5   -147173.59 
   72400     1018.286    4.8775954      2204118          147  0.007193656    -149490.2   -147080.16 
   72500    1004.9698   -10.821946      2204118          147  0.007193656   -149381.33   -147002.81 
   72600    1019.2099    40.818514      2204118          147  0.007193656    -149390.2   -146977.97 
   72700    990.53624   -50.441641      2204118          147  0.007193656   -149304.37   -146960.01 
   72800    1003.9644    5.9423986      2204118          147  0.007193656   -149398.78   -147022.64 
   72900    1011.9064   -146.80035      2204118          147  0.007193656   -149509.14   -147114.19 
   73000    1007.9466    88.728661      2204118          147  0.007193656    -149534.9   -147149.33 
   73100    957.55256    12.150222      2204118          147  0.007193656   -149338.19   -147071.89 
   73200    1007.0457    104.27744      2204118          147  0.007193656   -149290.86   -146907.42 
   73300    991.09313      -62.957      2204118          147  0.007193656   -149251.83   -146906.15 
   73400     983.0587   -137.70366      2204118          147  0.007193656   -149305.02   -146978.35 
   73500    982.23741   -74.939295      2204118          147  0.007193656   -149456.89   -147132.17 
   73600    949.88807    36.416501      2204118          147  0.007193656   -149390.31   -147142.15 
   73700    995.71309     204.3109      2204118          147  0.007193656   -149469.63   -147113.02 
   73800    967.48323    48.300321      2204118          147  0.007193656   -149330.32   -147040.52 
   73900     1041.765    152.12962      2204118          147  0.007193656   -149390.42   -146924.81 
   74000    1005.2566   -4.7331334      2204118          147  0.007193656   -149270.39   -146891.18 
   74100    990.98161   -39.484845      2204118          147  0.007193656   -149283.94   -146938.52 
   74200     1027.902   -41.318419      2204118          147  0.007193656   -149484.15   -147051.35 
   74300    934.12692    204.36333      2204118          147  0.007193656   -149345.92   -147135.07 
   74400    1006.8103   -9.5016316      2204118          147  0.007193656    -149465.2   -147082.32 
   74500     992.2129   -127.80501      2204118          147  0.007193656   -149287.02   -146938.69 
   74600     967.8322     3.556614      2204118          147  0.007193656   -149201.51   -146910.88 
   74700    1016.4636   -44.153985      2204118          147  0.007193656   -149362.88   -146957.15 
   74800    1058.3071      94.0851      2204118          147  0.007193656   -149508.03   -147003.27 
   74900    1002.6245   -171.97648      2204118          147  0.007193656   -149394.65   -147021.68 
   75000    1053.1759    -7.154001      2204118          147  0.007193656    -149539.7   -147047.08 
[...]
  381700    1047.6292    5.0517044      2204118          147  0.007193656    -149454.9   -146975.41 
  381800    1026.5417    221.49074      2204118          147  0.007193656   -149538.05   -147108.47 
  381900    974.72012   -9.8349994      2204118          147  0.007193656   -149450.12   -147143.19 
  382000    1003.6326   -190.45587      2204118          147  0.007193656   -149519.16   -147143.79 
  382100    994.42477   -90.444152      2204118          147  0.007193656   -149462.89   -147109.32 
  382200    1032.8733    36.484896      2204118          147  0.007193656   -149445.35   -147000.79 
  382300    1012.7826    28.914143      2204118          147  0.007193656   -149379.01   -146981.99 
  382400    962.87809    152.40476      2204118          147  0.007193656   -149374.12   -147095.22 
  382500    995.41315    40.087888      2204118          147  0.007193656   -149606.83   -147250.92 
  382600    942.66184   -36.779261      2204118          147  0.007193656   -149453.44   -147222.38 
  382700    1005.6383    37.552303      2204118          147  0.007193656   -149502.87   -147122.76 
  382800     1029.548     65.75303      2204118          147  0.007193656   -149527.01   -147090.31 
  382900    1009.6882    135.79718      2204118          147  0.007193656    -149477.1    -147087.4 
  383000    931.34849    55.124229      2204118          147  0.007193656   -149427.28      -147223 
  383100    965.20698   -159.84429      2204118          147  0.007193656    -149621.1   -147336.68 
  383200    954.68902    15.844756      2204118          147  0.007193656   -149494.39   -147234.86 
  383300    1014.9358    84.825209      2204118          147  0.007193656   -149504.12   -147102.01 
  383400    1017.6576    72.856774      2204118          147  0.007193656   -149471.26   -147062.71 
  383500    938.58031    37.413051      2204118          147  0.007193656   -149329.85   -147108.45 
  383600    1002.0959   -158.47865      2204118          147  0.007193656   -149590.95   -147219.22 
  383700    943.13595   -45.056268      2204118          147  0.007193656   -149593.25   -147361.07 
  383800    954.87174    18.726137      2204118          147  0.007193656   -149534.88   -147274.92 
  383900    982.22099    92.183079      2204118          147  0.007193656   -149503.67   -147178.98 
  384000    964.25339    191.61492      2204118          147  0.007193656   -149416.72   -147134.56 
  384100    1001.5039   -100.77353      2204118          147  0.007193656   -149470.23   -147099.91 
  384200    1040.9893   -234.92691      2204118          147  0.007193656   -149535.03   -147071.25 
  384300    1028.4611   -106.99261      2204118          147  0.007193656   -149385.13   -146951.01 
  384400     1021.301    189.72769      2204118          147  0.007193656   -149302.23   -146885.06 
  384500    998.47043     96.75023      2204118          147  0.007193656   -149421.22   -147058.07 
  384600    1004.8239    122.89733      2204118          147  0.007193656   -149499.54   -147121.36 
  384700    969.50841   -154.12209      2204118          147  0.007193656   -149442.57   -147147.97 
  384800    986.29039    3.5003716      2204118          147  0.007193656   -149510.45   -147176.14 
  384900    967.81717    51.669276      2204118          147  0.007193656   -149506.18   -147215.59 
  385000    986.08251   -22.582989      2204118          147  0.007193656   -149587.66   -147253.83 
  385100    988.63519    63.516068      2204118          147  0.007193656   -149517.21   -147177.34 
  385200    979.82405    44.946173      2204118          147  0.007193656   -149365.07   -147046.06 
  385300    1021.2441   -92.196042      2204118          147  0.007193656   -149423.87   -147006.82 
  385400    965.09563    -80.29901      2204118          147  0.007193656      -149407   -147122.85 
  385500    986.39975    27.577087      2204118          147  0.007193656   -149612.68   -147278.11 
  385600     980.0677    17.446386      2204118          147  0.007193656   -149568.47   -147248.88 
  385700    990.91471     55.49506      2204118          147  0.007193656   -149507.25   -147161.99 
  385800    1050.3651    21.400336      2204118          147  0.007193656   -149553.53   -147067.56 
  385900    1029.2286    56.907991      2204118          147  0.007193656   -149473.15   -147037.21 
  386000    994.45509   -19.584347      2204118          147  0.007193656   -149484.07   -147130.43 
  386100    981.28624   -90.408966      2204118          147  0.007193656   -149607.52   -147285.04 
  386200    963.98646    141.36376      2204118          147  0.007193656   -149594.49   -147312.96 
  386300    1030.6188    221.62865      2204118          147  0.007193656   -149614.39   -147175.16 
  386400    1049.4819   -77.131941      2204118          147  0.007193656   -149597.27    -147113.4 
  386500    1056.3984   -105.18186      2204118          147  0.007193656   -149625.75   -147125.51 
  386600    1017.3378     -139.395      2204118          147  0.007193656   -149599.24   -147191.45 
  386700    964.60615   -84.857685      2204118          147  0.007193656   -149486.95   -147203.96 
  386800    988.66068    135.35454      2204118          147  0.007193656   -149455.05   -147115.12 
  386900    1060.3368    25.481102      2204118          147  0.007193656   -149510.25   -147000.68 
  387000    1019.7117    -91.36992      2204118          147  0.007193656   -149395.11   -146981.69 
  387100    962.16209   -37.528236      2204118          147  0.007193656   -149396.25   -147119.04 
  387200    1012.6951   -23.863947      2204118          147  0.007193656   -149638.64   -147241.83 
  387300    971.89893    210.78273      2204118          147  0.007193656   -149515.96    -147215.7 
  387400    992.33905    191.82034      2204118          147  0.007193656    -149482.3   -147133.67 
  387500      1075.31    7.8752358      2204118          147  0.007193656   -149573.84   -147028.83 
  387600    1062.7281   -301.56855      2204118          147  0.007193656   -149359.85   -146844.63 
  387700    1110.1216   -222.46623      2204118          147  0.007193656   -149351.52   -146724.12 
  387800    1033.9955    14.250237      2204118          147  0.007193656   -149369.45   -146922.23 
  387900    1028.9395    89.104589      2204118          147  0.007193656   -149485.46   -147050.21 
  388000    959.51855    65.439537      2204118          147  0.007193656   -149457.46   -147186.51 
  388100    1000.3314    53.875164      2204118          147  0.007193656   -149598.42   -147230.87 
  388200      974.607   -177.15017      2204118          147  0.007193656   -149480.05   -147173.38 
  388300    1038.4607    20.039957      2204118          147  0.007193656   -149489.35   -147031.56 
  388400    1095.3006     140.8406      2204118          147  0.007193656   -149626.16   -147033.84 
  388500     974.2661    147.76692      2204118          147  0.007193656   -149391.25   -147085.39 
  388600    1031.7231   -105.12543      2204118          147  0.007193656   -149595.08   -147153.23 
  388700    1029.5639   -6.5751573      2204118          147  0.007193656   -149591.99   -147155.25 
  388800    1009.0722   -99.220338      2204118          147  0.007193656   -149528.48   -147140.25 
  388900    967.23935    165.12972      2204118          147  0.007193656   -149421.06   -147131.84 
  389000    994.05686    128.11013      2204118          147  0.007193656   -149417.67   -147064.98 
  389100    1018.9229   -5.1143836      2204118          147  0.007193656   -149357.46   -146945.91 
  389200    1024.0204   -2.0334452      2204118          147  0.007193656   -149346.34   -146922.73 
  389300     1004.141   -125.27732      2204118          147  0.007193656   -149505.58   -147129.01 
  389400    989.55024    -97.41338      2204118          147  0.007193656   -149531.45   -147189.42 
  389500    981.55831    259.10557      2204118          147  0.007193656   -149471.98   -147148.86 
  389600    1015.9595    7.9975992      2204118          147  0.007193656   -149473.73    -147069.2 
  389700    1005.4618    143.34096      2204118          147  0.007193656   -149388.16   -147008.47 
  389800    1028.2746   -124.74179      2204118          147  0.007193656   -149418.18    -146984.5 
  389900      995.495    7.5160737      2204118          147  0.007193656   -149461.54   -147105.44 
  390000      991.973   -94.806837      2204118          147  0.007193656   -149548.82   -147201.05 
  390100    968.65168    135.70215      2204118          147  0.007193656   -149471.12   -147178.55 
  390200    995.15627    133.64424      2204118          147  0.007193656   -149438.85   -147083.56 
  390300    1007.7887   -54.753499      2204118          147  0.007193656   -149331.14   -146945.95 
  390400    1076.4541   -142.22791      2204118          147  0.007193656    -149373.1   -146825.39 
  390500    1016.0644    22.440504      2204118          147  0.007193656   -149419.37   -147014.59 
  390600    999.23726    -28.35487      2204118          147  0.007193656   -149474.95   -147109.99 
  390700    983.65182    10.762093      2204118          147  0.007193656   -149501.16   -147173.09 
  390800     989.4698       3.1041      2204118          147  0.007193656   -149540.59   -147198.75 
  390900    1010.5691   -127.72461      2204118          147  0.007193656   -149541.39   -147149.62 
  391000    1007.9496    -210.1243      2204118          147  0.007193656   -149379.67    -146994.1 
  391100    1009.8429    21.250299      2204118          147  0.007193656   -149313.22   -146923.16 
  391200    1048.5659    43.082134      2204118          147  0.007193656   -149493.34   -147011.63 
  391300    1015.0876    -4.033357      2204118          147  0.007193656   -149536.74   -147134.26 
  391400    965.55991    134.61328      2204118          147  0.007193656   -149436.49   -147151.24 
  391500    1030.1671   -23.120445      2204118          147  0.007193656   -149556.27   -147118.11 
  391600    1015.9273   -4.1542195      2204118          147  0.007193656   -149478.79   -147074.34 
  391700    1025.7276    204.46286      2204118          147  0.007193656   -149455.59   -147027.94 
  391800     966.8803   -32.957784      2204118          147  0.007193656   -149351.59   -147063.21 
  391900    1019.0034    -29.50515      2204118          147  0.007193656   -149582.64    -147170.9 
  392000    947.96587   -15.600297      2204118          147  0.007193656    -149496.1   -147252.49 
  392100    964.46167    36.564433      2204118          147  0.007193656   -149546.69   -147264.04 
  392200    1016.1227    173.78065      2204118          147  0.007193656   -149475.53   -147070.61 
  392300    1017.6152   -50.803799      2204118          147  0.007193656   -149405.89   -146997.43 
  392400    1018.3641   -137.77217      2204118          147  0.007193656   -149457.04   -147046.82 
  392500     996.6905   -97.370616      2204118          147  0.007193656   -149528.14   -147169.21 
  392600    955.30357   -1.2956979      2204118          147  0.007193656   -149462.33   -147201.35 
  392700    1027.0815    25.095129      2204118          147  0.007193656   -149610.79   -147179.93 
  392800     1019.278    62.531872      2204118          147  0.007193656   -149555.69    -147143.3 
  392900    995.03384   -160.81886      2204118          147  0.007193656   -149494.07   -147139.06 
  393000    999.06411   -25.231052      2204118          147  0.007193656   -149475.04   -147110.49 
  393100    1036.9123   -64.535846      2204118          147  0.007193656   -149525.74   -147071.61 
  393200    1033.3294    191.91834      2204118          147  0.007193656   -149563.88   -147118.24 
  393300    997.20788    -19.75628      2204118          147  0.007193656    -149626.4   -147266.24 
  393400    941.54969   -4.9641913      2204118          147  0.007193656   -149511.45   -147283.03 
  393500    1009.1998   -80.954934      2204118          147  0.007193656   -149520.27   -147131.74 
  393600     1056.948   -76.733516      2204118          147  0.007193656   -149566.44   -147064.89 
  393700    1000.3025    12.385966      2204118          147  0.007193656   -149466.79   -147099.31 
  393800     1013.634   -27.481219      2204118          147  0.007193656   -149557.31   -147158.28 
  393900    926.39719    48.079563      2204118          147  0.007193656   -149457.58   -147265.02 
  394000     957.9133    9.8807105      2204118          147  0.007193656   -149632.66   -147365.51 
  394100    928.57439    18.739089      2204118          147  0.007193656    -149513.1   -147315.38 
  394200    1011.9248     121.6309      2204118          147  0.007193656   -149516.71   -147121.72 
  394300    1086.6304     280.9905      2204118          147  0.007193656   -149641.53   -147069.73 
  394400    1023.0773   -108.53599      2204118          147  0.007193656   -149535.34   -147113.96 
  394500    1027.3755   -24.544701      2204118          147  0.007193656   -149634.55   -147202.99 
  394600    965.66655   -176.07598      2204118          147  0.007193656   -149523.94   -147238.43 
  394700     1036.157    50.125439      2204118          147  0.007193656   -149508.88   -147056.54 
  394800    1008.1895    119.18768      2204118          147  0.007193656   -149354.53   -146968.39 
  394900    1011.4456   -54.927913      2204118          147  0.007193656   -149415.97   -147022.12 
  395000     1006.543    -45.99611      2204118          147  0.007193656   -149491.61   -147109.36 
  395100    989.07852   -114.78395      2204118          147  0.007193656   -149487.17   -147146.25 
  395200    981.15621    108.10299      2204118          147  0.007193656      -149442   -147119.83 
  395300    1051.5383    163.74339      2204118          147  0.007193656   -149603.65   -147114.91 
  395400    988.48701    82.954667      2204118          147  0.007193656   -149470.71    -147131.2 
  395500    1019.8601   -5.5475248      2204118          147  0.007193656   -149553.34   -147139.58 
  395600    985.14974   -22.245488      2204118          147  0.007193656   -149513.27   -147181.66 
  395700    928.00223    101.23928      2204118          147  0.007193656   -149385.38   -147189.02 
  395800    1008.3198   -13.166908      2204118          147  0.007193656   -149502.28   -147115.82 
  395900    1027.3249    58.566636      2204118          147  0.007193656   -149422.01   -146990.58 
  396000    1025.9816    59.073861      2204118          147  0.007193656   -149388.52   -146960.27 
  396100    998.35046    24.751497      2204118          147  0.007193656    -149484.2   -147121.34 
  396200    965.59747   -48.273085      2204118          147  0.007193656   -149471.99   -147186.65 
  396300     1004.722   -35.701906      2204118          147  0.007193656   -149526.51   -147148.57 
  396400    1021.9575    76.959686      2204118          147  0.007193656   -149486.72   -147067.99 
  396500    983.88347    103.88128      2204118          147  0.007193656   -149354.91   -147026.29 
  396600    1071.4972    139.15803      2204118          147  0.007193656   -149566.32   -147030.34 
  396700     1026.958    3.3698754      2204118          147  0.007193656   -149578.33   -147147.76 
  396800    942.32622    109.25761      2204118          147  0.007193656   -149435.79   -147205.53 
  396900    1029.1167     6.389763      2204118          147  0.007193656   -149582.49   -147146.81 
  397000    997.89059    46.681152      2204118          147  0.007193656   -149351.05   -146989.28 
  397100    1047.6019   -128.80685      2204118          147  0.007193656    -149377.4   -146897.98 
  397200    1091.3085   -142.85402      2204118          147  0.007193656   -149568.53   -146985.66 
  397300    997.83463    109.32741      2204118          147  0.007193656   -149438.97   -147077.33 
  397400    1002.0256   -33.556171      2204118          147  0.007193656   -149493.85   -147122.29 
  397500    1036.1075    101.65101      2204118          147  0.007193656   -149628.35   -147176.13 
  397600    970.65456   -160.97578      2204118          147  0.007193656   -149572.03   -147274.72 
  397700     940.3543   -16.913058      2204118          147  0.007193656    -149499.9    -147274.3 
  397800    1010.7551     -61.5518      2204118          147  0.007193656   -149487.66   -147095.44 
  397900    1025.4529    36.214102      2204118          147  0.007193656   -149412.53   -146985.52 
  398000    1039.5289    -216.0655      2204118          147  0.007193656   -149493.36   -147033.04 
  398100     954.9734   -152.79553      2204118          147  0.007193656   -149424.08   -147163.88 
  398200    1026.9778     48.51447      2204118          147  0.007193656   -149627.02   -147196.41 
  398300     1018.371     89.42549      2204118          147  0.007193656   -149580.27   -147170.03 
  398400     987.8909    133.13798      2204118          147  0.007193656    -149475.7   -147137.59 
  398500     1031.713    81.682417      2204118          147  0.007193656   -149480.04   -147038.22 
  398600    1019.0508   -54.659379      2204118          147  0.007193656   -149291.43   -146879.58 
  398700    1047.6702    -128.3443      2204118          147  0.007193656   -149384.22   -146904.63 
  398800    1017.4533    151.74781      2204118          147  0.007193656   -149458.45   -147050.38 
  398900    1007.3163    106.70192      2204118          147  0.007193656   -149506.26   -147122.18 
  399000    1006.6468    54.294267      2204118          147  0.007193656   -149550.04   -147167.55 
  399100    1028.4116   -174.61323      2204118          147  0.007193656   -149617.81    -147183.8 
  399200    1077.7123    24.219272      2204118          147  0.007193656   -149684.96   -147134.27 
  399300    1024.7335    51.365848      2204118          147  0.007193656   -149464.15   -147038.84 
  399400    985.85997    100.52174      2204118          147  0.007193656   -149334.78   -147001.48 
  399500    992.93705   -143.75621      2204118          147  0.007193656   -149415.08   -147065.03 
  399600    964.62404    12.561167      2204118          147  0.007193656   -149513.54    -147230.5 
  399700    980.00796    55.303284      2204118          147  0.007193656    -149572.6   -147253.15 
  399800    1042.3261    73.008867      2204118          147  0.007193656   -149676.09   -147209.15 
  399900    1002.3164    82.330512      2204118          147  0.007193656   -149440.25      -147068 
  400000    1044.8719   -10.866381      2204118          147  0.007193656    -149429.9   -146956.93 
  400057    1061.5658   -59.128289      2204118          147  0.007193656   -149480.17    -146967.7 
Loop time of 5245.38 on 16 procs for 400000 steps with 795 atoms

Performance: 1.647 ns/day, 14.571 hours/ns, 76.258 timesteps/s
99.9% CPU use with 16 MPI tasks x no OpenMP threads

MPI task timing breakdown:
Section |  min time  |  avg time  |  max time  |%varavg| %total
---------------------------------------------------------------
Pair    | 0.25154    | 1199.2     | 4274.8     |4340.0 | 22.86
Neigh   | 0.037575   | 3.3383     | 7.1744     | 180.7 |  0.06
Comm    | 0.66958    | 792.44     | 3121.5     |3807.4 | 15.11
Output  | 0.45805    | 0.48387    | 0.66093    |   6.8 |  0.01
Modify  | 928.56     | 3248.7     | 5242.9     |3544.3 | 61.93
Other   |            | 1.301      |            |       |  0.02

Nlocal:        49.6875 ave         208 max           0 min
Histogram: 12 0 0 0 0 0 0 0 0 4
Nghost:        160.062 ave         430 max           0 min
Histogram: 8 0 0 0 0 4 0 0 0 4
Neighs:        3055.25 ave       12831 max           0 min
Histogram: 12 0 0 0 0 0 0 0 0 4

Total # of neighbors = 48884
Ave neighs/atom = 61.489308
Neighbor list builds = 13224
Dangerous builds = 0

write_data graphene_single_layer_ReaxFF_795_C_temp_1000K.data
System init for write_data ...
Total wall time: 1:27:29
