
# System definition
read_data graphene_single_layer_x-45_y-45_795_C.data
Reading data file ...
  orthogonal box = (-51.000000 -51.000000 -51.000000) to (96.000000 96.000000 51.000000)
  2 by 4 by 2 MPI processor grid
  reading atoms ...
  795 atoms
  read_data CPU = 0.027 seconds

pair_style reax/c NULL
pair_coeff * * ffield.reax.cho C
Reading potential file ffield.reax.cho with DATE: 2011-02-18
fix qeq_reax all qeq/reax 1 0.0 10.0 1.0e-6 reax/c


# Minimization
timestep 0.25
min_style cg
thermo 100
thermo_style custom step temp press vol lx density pe etotal
dump 2 all custom 1000 graphene_single_layer_ReaxFF_795_C_temp_800K.lammpstrj id type x y z
minimize 1.0e-6 1.0e-6 100 1000

CITE-CITE-CITE-CITE-CITE-CITE-CITE-CITE-CITE-CITE-CITE-CITE-CITE

Your simulation uses code contributions which should be cited:

- pair reaxff command:

@Article{Aktulga12,
 author = {H. M. Aktulga, J. C. Fogarty, S. A. Pandit, A. Y. Grama},
 title = {Parallel reactive molecular dynamics: Numerical methods and algorithmic techniques},
 journal = {Parallel Computing},
 year =    2012,
 volume =  38,
 pages =   {245--259}
}

- fix qeq/reaxff command:

@Article{Aktulga12,
 author = {H. M. Aktulga, J. C. Fogarty, S. A. Pandit, A. Y. Grama},
 title = {Parallel reactive molecular dynamics: Numerical methods and algorithmic techniques},
 journal = {Parallel Computing},
 year =    2012,
 volume =  38,
 pages =   {245--259}
}

CITE-CITE-CITE-CITE-CITE-CITE-CITE-CITE-CITE-CITE-CITE-CITE-CITE

WARNING: Using 'neigh_modify every 1 delay 0 check yes' setting during minimization (../min.cpp:188)
Neighbor list info ...
  update every 1 steps, delay 0 steps, check yes
  max neighbors/atom: 10000, page size: 100000
  master list distance cutoff = 10.4
  ghost atom cutoff = 10.4
  binsize = 5.2, bins = 29 29 20
  2 neighbor lists, perpetual/occasional/extra = 2 0 0
  (1) pair reax/c, perpetual
      attributes: half, newton off, ghost
      pair build: half/bin/newtoff/ghost
      stencil: full/ghost/bin/3d
      bin: standard
  (2) fix qeq/reax, perpetual, copy from (1)
      attributes: half, newton off, ghost
      pair build: copy
      stencil: none
      bin: none
Per MPI rank memory allocation (min/avg/max) = 7.965 | 10.90 | 14.56 Mbytes
Step Temp Press Volume Lx Density PotEng TotEng 
       0            0    4589.6155      2204118          147  0.007193656   -142445.78   -142445.78 
      57            0    1294.9092      2204118          147  0.007193656   -150031.46   -150031.46 
Loop time of 3.78904 on 16 procs for 57 steps with 795 atoms

99.9% CPU use with 16 MPI tasks x no OpenMP threads

Minimization stats:
  Stopping criterion = energy tolerance
  Energy initial, next-to-last, final = 
     -142445.777810412  -150031.434465826  -150031.460524184
  Force two-norm initial, final = 2416.1570 1787.6736
  Force max component initial, final = 272.51119 337.29483
  Final line search alpha, max atom move = 0.00017977701 0.060637855
  Iterations, force evaluations = 57 237

MPI task timing breakdown:
Section |  min time  |  avg time  |  max time  |%varavg| %total
---------------------------------------------------------------
Pair    | 0.00022239 | 0.74445    | 2.6489     | 107.8 | 19.65
Neigh   | 3.1952e-05 | 0.0015693  | 0.0033838  |   3.9 |  0.04
Comm    | 0.00035518 | 0.48867    | 1.9244     |  94.2 | 12.90
Output  | 0          | 0          | 0          |   0.0 |  0.00
Modify  | 1.106      | 1.1094     | 1.1118     |   0.2 | 29.28
Other   |            | 1.445      |            |       | 38.14

Nlocal:        49.6875 ave         209 max           0 min
Histogram: 12 0 0 0 0 0 0 0 0 4
Nghost:        162.812 ave         432 max           0 min
Histogram: 8 0 0 0 0 4 0 0 0 4
Neighs:        3113.44 ave       13116 max           0 min
Histogram: 12 0 0 0 0 0 0 0 0 4

Total # of neighbors = 49815
Ave neighs/atom = 62.660377
Neighbor list builds = 6
Dangerous builds = 0

fix 1 all nvt temp 900.0 900.0 $(100.0*dt)
fix 1 all nvt temp 900.0 900.0 25
run 400000
Per MPI rank memory allocation (min/avg/max) = 6.841 | 9.777 | 13.44 Mbytes
Step Temp Press Volume Lx Density PotEng TotEng 
      57            0    1294.9092      2204118          147  0.007193656   -150031.46   -150031.46 
     100    121.44162    1524.3102      2204118          147  0.007193656   -150304.18   -150016.76 
     200    290.89357   -716.57989      2204118          147  0.007193656    -150484.5   -149796.02 
     300    345.39835   -845.79177      2204118          147  0.007193656   -150345.95   -149528.48 
     400     439.5048   -854.57743      2204118          147  0.007193656   -150184.93   -149144.73 
     500    646.31955    614.17534      2204118          147  0.007193656   -150164.93   -148635.24 
     600    594.61293    1096.4842      2204118          147  0.007193656    -149522.5    -148115.2 
     700    868.16211   -285.26095      2204118          147  0.007193656   -149597.12   -147542.39 
     800    799.29547   -821.28678      2204118          147  0.007193656   -148967.42   -147075.67 
     900    882.72771   -789.89625      2204118          147  0.007193656   -148655.31    -146566.1 
    1000    1222.9229   -223.16082      2204118          147  0.007193656   -149238.88   -146344.51 
    1100    930.20758    720.82397      2204118          147  0.007193656   -149344.83   -147143.25 
    1200    720.64771    1159.5588      2204118          147  0.007193656   -149104.02   -147398.42 
    1300    918.13974    -373.4488      2204118          147  0.007193656   -149369.13   -147196.12 
    1400    918.39834   -522.48158      2204118          147  0.007193656   -149221.59   -147047.96 
    1500    936.11566   -472.96687      2204118          147  0.007193656   -149258.02   -147042.46 
    1600    997.88901   -35.434947      2204118          147  0.007193656   -149604.22   -147242.45 
    1700    826.25598    1012.4355      2204118          147  0.007193656   -149561.02   -147605.47 
    1800    839.69658    127.59194      2204118          147  0.007193656   -149531.77   -147544.41 
    1900    879.36675   -591.57189      2204118          147  0.007193656   -149364.65    -147283.4 
    2000    904.76968    -649.4035      2204118          147  0.007193656   -149116.45   -146975.08 
    2100    1002.5823   -401.84911      2204118          147  0.007193656   -149158.03   -146785.16 
    2200    1003.0342    31.819945      2204118          147  0.007193656   -149467.39   -147093.44 
    2300    809.39871    1082.9708      2204118          147  0.007193656   -149464.32   -147548.66 
    2400    827.47401     356.1332      2204118          147  0.007193656   -149534.31   -147575.88 
    2500    908.47726   -378.75804      2204118          147  0.007193656   -149532.75    -147382.6 
    2600    912.19729    -376.5473      2204118          147  0.007193656   -149369.72   -147210.77 
    2700    948.50849   -266.65725      2204118          147  0.007193656   -149467.65   -147222.76 
    2800    885.64868    177.89231      2204118          147  0.007193656   -149512.25   -147416.13 
    2900    894.16157     147.8561      2204118          147  0.007193656   -149677.57    -147561.3 
    3000    843.51147   -281.43717      2204118          147  0.007193656   -149518.36   -147521.97 
    3100     943.2684   -377.39302      2204118          147  0.007193656   -149572.82   -147340.33 
    3200    994.35393   -274.55249      2204118          147  0.007193656    -149621.7    -147268.3 
    3300    903.83179    313.43091      2204118          147  0.007193656   -149656.09   -147516.93 
    3400     838.8029    466.42013      2204118          147  0.007193656   -149742.85    -147757.6 
    3500    800.99654   -155.71032      2204118          147  0.007193656   -149640.81   -147745.05 
    3600    855.26787   -213.57206      2204118          147  0.007193656   -149468.58   -147444.37 
    3700    964.30403    -185.4167      2204118          147  0.007193656   -149475.01   -147192.73 
    3800     986.9229    126.83894      2204118          147  0.007193656   -149611.59   -147275.78 
    3900    863.47546    55.759312      2204118          147  0.007193656   -149622.62   -147578.97 
    4000    882.47081    72.612035      2204118          147  0.007193656   -149812.02   -147723.42 
    4100    869.73522   -340.54759      2204118          147  0.007193656   -149711.66   -147653.21 
    4200    886.40317   -161.56498      2204118          147  0.007193656   -149525.14   -147427.23 
    4300    882.78769   -10.414077      2204118          147  0.007193656   -149399.61   -147310.26 
    4400    917.74785   -108.96688      2204118          147  0.007193656    -149593.2   -147421.11 
    4500    887.82051    175.09355      2204118          147  0.007193656   -149736.33   -147635.07 
    4600    836.68104    78.064574      2204118          147  0.007193656   -149701.03   -147720.81 
    4700    890.17072    185.80666      2204118          147  0.007193656   -149685.54   -147578.71 
    4800    894.11177    109.09694      2204118          147  0.007193656   -149502.49   -147386.34 
    4900    941.97956   -56.042402      2204118          147  0.007193656    -149590.7   -147361.26 
    5000    870.81028   -165.75435      2204118          147  0.007193656   -149632.39   -147571.39 
    5100    836.28317   -152.49425      2204118          147  0.007193656      -149672   -147692.72 
    5200    842.34658   -77.728685      2204118          147  0.007193656   -149625.11   -147631.48 
    5300    892.73879    33.911041      2204118          147  0.007193656   -149562.16   -147449.26 
    5400    924.95944   -224.34716      2204118          147  0.007193656   -149487.34   -147298.18 
    5500    925.71755   -84.825204      2204118          147  0.007193656   -149532.92   -147341.97 
    5600    940.59334   -17.783355      2204118          147  0.007193656   -149772.87   -147546.71 
    5700    854.01166    87.417026      2204118          147  0.007193656   -149686.41   -147665.16 
    5800    849.86776    192.50058      2204118          147  0.007193656   -149663.49   -147652.06 
    5900    837.48076    8.7047701      2204118          147  0.007193656   -149492.74   -147510.63 
    6000    928.47714    66.909776      2204118          147  0.007193656   -149606.14   -147408.66 
    6100    959.01478     203.3856      2204118          147  0.007193656   -149690.37   -147420.61 
    6200    901.89249   -35.722927      2204118          147  0.007193656   -149707.99   -147573.42 
    6300    852.69825   -101.08487      2204118          147  0.007193656   -149641.83    -147623.7 
    6400    897.47709    17.162378      2204118          147  0.007193656   -149658.19   -147534.08 
    6500    896.33145   -105.42162      2204118          147  0.007193656    -149543.2   -147421.79 
    6600    963.17845   -43.092045      2204118          147  0.007193656   -149693.55   -147413.93 
    6700    885.00393   -100.94634      2204118          147  0.007193656   -149590.99   -147496.39 
    6800     854.3157    44.072202      2204118          147  0.007193656   -149605.94   -147583.97 
    6900    908.09218    109.34169      2204118          147  0.007193656   -149708.48   -147559.24 
    7000    878.54821    162.76866      2204118          147  0.007193656   -149573.54   -147494.23 
    7100    905.10358    280.94994      2204118          147  0.007193656   -149547.57    -147405.4 
    7200    1005.8886   -70.237831      2204118          147  0.007193656    -149631.5    -147250.8 
    7300    942.29955   -74.622432      2204118          147  0.007193656   -149508.97   -147278.77 
    7400    929.22902   -135.82547      2204118          147  0.007193656      -149636   -147436.74 
    7500    896.19954   -200.95762      2204118          147  0.007193656   -149624.09   -147502.99 
    7600    930.90277   -64.053138      2204118          147  0.007193656   -149707.96   -147504.74 
    7700    902.02841    63.075163      2204118          147  0.007193656   -149684.62   -147549.73 
    7800    872.85617   -97.627453      2204118          147  0.007193656   -149679.46   -147613.61 
    7900    869.48627    27.759643      2204118          147  0.007193656   -149736.58   -147678.71 
    8000    886.62293   -57.294131      2204118          147  0.007193656   -149833.88   -147735.46 
    8100    863.36031    88.138885      2204118          147  0.007193656   -149705.56   -147662.19 
    8200    931.40657     48.43642      2204118          147  0.007193656    -149719.3   -147514.88 
    8300    908.33016    157.94954      2204118          147  0.007193656   -149610.95   -147461.15 
    8400      913.443    35.112434      2204118          147  0.007193656   -149617.18   -147455.27 
    8500    874.22881   -82.850231      2204118          147  0.007193656    -149659.3    -147590.2 
    8600    883.67698      -69.711      2204118          147  0.007193656   -149717.65   -147626.19 
    8700    907.03658    -61.93095      2204118          147  0.007193656   -149694.11   -147547.37 
    8800    908.41535    61.352151      2204118          147  0.007193656   -149639.96   -147489.96 
    8900    930.26585    61.821984      2204118          147  0.007193656   -149652.82    -147451.1 
    9000    877.27834   -180.83408      2204118          147  0.007193656   -149550.14   -147473.83 
    9100    930.36667   -40.571479      2204118          147  0.007193656   -149730.65   -147528.69 
    9200    909.25403    145.79957      2204118          147  0.007193656   -149743.57   -147591.58 
    9300    905.62134    293.04741      2204118          147  0.007193656   -149721.45   -147578.06 
    9400    941.92066     202.4758      2204118          147  0.007193656   -149752.98   -147523.68 
    9500    895.30422    15.938192      2204118          147  0.007193656   -149562.33   -147443.36 
    9600    900.87315    -53.27415      2204118          147  0.007193656   -149583.56    -147451.4 
    9700    887.98658   -198.60833      2204118          147  0.007193656   -149723.15    -147621.5 
    9800    850.09198   -222.84673      2204118          147  0.007193656   -149615.43   -147603.46 
    9900    933.41925    154.94415      2204118          147  0.007193656   -149725.69    -147516.5 
   10000     932.2729   -10.673922      2204118          147  0.007193656   -149640.59   -147434.12 
   10100    893.32888   -161.51518      2204118          147  0.007193656   -149558.18   -147443.88 
   10200    891.26891   -12.071487      2204118          147  0.007193656   -149709.79   -147600.36 
   10300    839.42365    8.2129274      2204118          147  0.007193656   -149710.41   -147723.69 
   10400    858.83252    164.99108      2204118          147  0.007193656   -149698.02   -147665.37 
   10500     941.0702    281.34505      2204118          147  0.007193656   -149751.05   -147523.76 
   10600    873.51164     6.071283      2204118          147  0.007193656   -149517.73   -147450.34 
   10700    927.27496   -113.01223      2204118          147  0.007193656   -149647.24    -147452.6 
   10800    910.29497    98.150002      2204118          147  0.007193656   -149727.51   -147573.06 
   10900    884.90429   -21.528922      2204118          147  0.007193656   -149782.68   -147688.32 
   11000    919.61513    26.992584      2204118          147  0.007193656   -149836.88   -147660.37 
   11100    874.13206   -72.506852      2204118          147  0.007193656   -149627.17   -147558.31 
   11200    930.98327   -120.78995      2204118          147  0.007193656   -149675.03   -147471.62 
   11300    903.60053   -55.319199      2204118          147  0.007193656   -149600.76   -147462.15 
   11400    912.00776    46.187658      2204118          147  0.007193656   -149700.64   -147542.13 
   11500    914.66558     119.0059      2204118          147  0.007193656   -149796.74   -147631.94 
   11600    893.14741    194.44331      2204118          147  0.007193656    -149765.4   -147651.54 
   11700    947.64039    124.49614      2204118          147  0.007193656   -149838.38   -147595.54 
   11800    889.09545    15.221527      2204118          147  0.007193656   -149630.24   -147525.96 
   11900    957.89389   -19.471485      2204118          147  0.007193656   -149730.38   -147463.27 
   12000    912.30341   -135.22656      2204118          147  0.007193656   -149687.04   -147527.84 
   12100    909.91335    5.3011041      2204118          147  0.007193656    -149808.9   -147655.35 
   12200    864.47962    49.700516      2204118          147  0.007193656   -149698.48   -147652.46 
   12300    889.91298    201.29947      2204118          147  0.007193656   -149662.09   -147555.87 
   12400    946.55984   -194.47215      2204118          147  0.007193656   -149709.97   -147469.69 
   12500    906.39194   -29.724943      2204118          147  0.007193656   -149643.36   -147498.15 
   12600    911.45519   -34.972173      2204118          147  0.007193656   -149742.72   -147585.52 
   12700    897.40066    237.65548      2204118          147  0.007193656    -149781.5   -147657.56 
   12800     857.6729    32.582784      2204118          147  0.007193656    -149679.3   -147649.39 
   12900    922.41565   -118.27682      2204118          147  0.007193656   -149648.67   -147465.53 
   13000    932.76455    -42.81371      2204118          147  0.007193656   -149623.73   -147416.09 
   13100    910.64185   -43.354144      2204118          147  0.007193656   -149654.49   -147499.21 
   13200    912.57246     81.25733      2204118          147  0.007193656   -149779.59   -147619.75 
   13300    885.79212   -56.264691      2204118          147  0.007193656   -149737.94   -147641.48 
   13400    923.60736   -238.81093      2204118          147  0.007193656   -149745.87   -147559.91 
   13500    905.24685   -238.00696      2204118          147  0.007193656   -149620.28   -147477.77 
   13600    962.69754   -194.67114      2204118          147  0.007193656   -149747.18    -147468.7 
   13700    924.42503    36.701025      2204118          147  0.007193656   -149701.53   -147513.64 
   13800    923.25172    53.465079      2204118          147  0.007193656   -149772.89   -147587.77 
   13900    865.89661    38.147973      2204118          147  0.007193656   -149690.75   -147641.38 
   14000    871.69245    148.92921      2204118          147  0.007193656   -149646.79    -147583.7 
   14100    927.04503    41.463982      2204118          147  0.007193656   -149596.19   -147402.09 
   14200    950.83969    25.784226      2204118          147  0.007193656   -149655.34   -147404.92 
   14300    864.20591   -76.895878      2204118          147  0.007193656   -149561.73   -147516.36 
   14400    906.14221   -203.83432      2204118          147  0.007193656   -149738.95   -147594.32 
   14500    903.37913   -3.5741129      2204118          147  0.007193656   -149717.34   -147579.25 
   14600    888.77244    -78.30527      2204118          147  0.007193656   -149653.39   -147549.87 
   14700    946.21148   -65.359563      2204118          147  0.007193656    -149654.1   -147414.64 
   14800    939.29519   -24.230642      2204118          147  0.007193656   -149585.76   -147362.67 
   14900    946.96133   -63.346707      2204118          147  0.007193656   -149735.97   -147494.74 
   15000    900.97369    207.70265      2204118          147  0.007193656    -149679.2   -147546.81 
   15100    844.76866    2.5628647      2204118          147  0.007193656   -149602.48   -147603.11 
   15200    870.27797    53.443051      2204118          147  0.007193656   -149686.61   -147626.87 
   15300    911.07766    69.723506      2204118          147  0.007193656   -149712.09   -147555.78 
   15400    919.29462    24.968365      2204118          147  0.007193656   -149598.09   -147422.33 
   15500    916.11594    108.91078      2204118          147  0.007193656   -149580.27   -147412.04 
   15600    896.07093   -1.3098189      2204118          147  0.007193656   -149650.95   -147530.16 
   15700     862.2811    33.124802      2204118          147  0.007193656   -149624.94   -147584.12 
   15800    892.84797   -77.305215      2204118          147  0.007193656   -149693.86    -147580.7 
   15900     860.3242   -236.36846      2204118          147  0.007193656   -149548.03   -147511.85 
   16000    963.18245    131.18364      2204118          147  0.007193656   -149714.15   -147434.53 
   16100    909.49311    33.712445      2204118          147  0.007193656   -149698.28   -147545.72 
   16200    881.44229    136.94812      2204118          147  0.007193656   -149741.71   -147655.55 
   16300    869.50976   -62.233893      2204118          147  0.007193656   -149723.09   -147665.17 
   16400    911.47254    115.88823      2204118          147  0.007193656   -149716.24      -147559 
   16500    944.35191    135.45054      2204118          147  0.007193656      -149746   -147510.94 
   16600    858.95959     177.5715      2204118          147  0.007193656   -149582.14   -147549.19 
   16700    897.11534   -26.467478      2204118          147  0.007193656   -149822.27   -147699.01 
   16800    831.52765   -36.517077      2204118          147  0.007193656   -149758.01   -147789.98 
   16900    958.09784    -14.56098      2204118          147  0.007193656   -149921.28   -147653.69 
   17000    927.21862   -37.462197      2204118          147  0.007193656   -149734.33   -147539.82 
   17100    938.68511    85.519576      2204118          147  0.007193656   -149728.71   -147507.06 
   17200    896.04649   -4.8877337      2204118          147  0.007193656   -149666.36   -147545.63 
   17300    883.96921   -37.288036      2204118          147  0.007193656   -149772.29   -147680.14 
   17400    853.72922    38.699762      2204118          147  0.007193656   -149711.71   -147691.14 
   17500    886.87269    115.23694      2204118          147  0.007193656   -149710.18   -147611.16 
   17600     906.2486     158.6716      2204118          147  0.007193656    -149700.7   -147555.83 
   17700    912.07543    86.426351      2204118          147  0.007193656    -149704.3   -147545.63 
   17800    921.86081    -3.498535      2204118          147  0.007193656   -149739.52   -147557.69 
   17900    932.12102   -188.80841      2204118          147  0.007193656   -149868.25   -147662.14 
   18000    835.37389   -3.0676769      2204118          147  0.007193656   -149765.07   -147787.94 
   18100     868.1784   -75.239618      2204118          147  0.007193656   -149762.24   -147707.47 
   18200    920.55908   -31.807857      2204118          147  0.007193656   -149782.47   -147603.73 
   18300    922.07414    55.941025      2204118          147  0.007193656   -149718.21   -147535.87 
   18400    871.59264   -10.156544      2204118          147  0.007193656   -149594.54   -147531.69 
   18500    898.54595    49.181685      2204118          147  0.007193656   -149757.78   -147631.14 
   18600    856.61222     55.12554      2204118          147  0.007193656   -149786.86   -147759.47 
   18700    856.05475    152.43103      2204118          147  0.007193656   -149736.35   -147710.27 
   18800    890.45279    142.45416      2204118          147  0.007193656   -149740.89    -147633.4 
   18900    896.04863      24.3459      2204118          147  0.007193656   -149704.35   -147583.61 
   19000    884.85408   -33.282656      2204118          147  0.007193656   -149653.21   -147558.97 
   19100    932.12382   -40.634485      2204118          147  0.007193656   -149738.44   -147532.32 
   19200    930.47495    91.648119      2204118          147  0.007193656   -149674.23   -147472.02 
   19300    922.56389    130.49379      2204118          147  0.007193656   -149593.66   -147410.17 
   19400    924.68487    39.580516      2204118          147  0.007193656   -149640.01    -147451.5 
   19500    897.80744   -13.291181      2204118          147  0.007193656   -149720.61   -147595.71 
   19600    876.82919   -13.217084      2204118          147  0.007193656   -149711.98   -147636.74 
   19700    892.88111   -22.137004      2204118          147  0.007193656   -149710.76   -147597.52 
   19800    918.27639    125.14862      2204118          147  0.007193656   -149695.34      -147522 
   19900    971.69899    17.495775      2204118          147  0.007193656   -149712.79   -147413.01 
   20000    928.01904    68.635594      2204118          147  0.007193656   -149594.22   -147397.82 
   20100     910.1894   -124.87202      2204118          147  0.007193656   -149698.52   -147544.32 
   20200    897.45154   -99.773829      2204118          147  0.007193656   -149754.73   -147630.67 
   20300    874.48447      37.0841      2204118          147  0.007193656   -149691.41   -147621.71 
   20400    907.63596   -64.028852      2204118          147  0.007193656   -149731.01   -147582.85 
   20500    931.00629    14.912914      2204118          147  0.007193656   -149652.62   -147449.15 
   20600     979.5474   -126.34559      2204118          147  0.007193656   -149671.23   -147352.87 
   20700     914.7764   -6.0949188      2204118          147  0.007193656   -149613.54   -147448.48 
   20800    901.22875    52.060713      2204118          147  0.007193656   -149659.25   -147526.26 
   20900    899.44637    112.64637      2204118          147  0.007193656   -149715.84   -147587.06 
   21000    936.46894    35.036794      2204118          147  0.007193656   -149830.43   -147614.02 
   21100    878.53039    -76.13189      2204118          147  0.007193656   -149710.45   -147631.18 
   21200    939.84308    25.364931      2204118          147  0.007193656   -149815.34   -147590.96 
   21300    900.95162   -76.318874      2204118          147  0.007193656   -149624.62   -147492.28 
   21400    944.43867   -3.2631667      2204118          147  0.007193656   -149707.46    -147472.2 
   21500    877.81423    40.025547      2204118          147  0.007193656   -149651.13   -147573.56 
   21600    895.17377   -120.14334      2204118          147  0.007193656   -149780.72   -147662.05 
   21700    877.49734    71.832474      2204118          147  0.007193656    -149685.5   -147608.68 
   21800    921.74584   -69.765132      2204118          147  0.007193656   -149575.76    -147394.2 
   21900    919.22064   -96.114744      2204118          147  0.007193656   -149595.67    -147420.1 
   22000    890.49249   -24.036323      2204118          147  0.007193656   -149643.33   -147535.74 
   22100    851.24434   -2.9583134      2204118          147  0.007193656   -149633.76   -147619.07 
   22200    902.53229    182.16496      2204118          147  0.007193656   -149774.21   -147638.13 
   22300    906.56154    50.599659      2204118          147  0.007193656   -149763.98   -147618.36 
   22400     910.7917    -59.45916      2204118          147  0.007193656   -149707.46   -147551.83 
   22500    948.39852   -37.678474      2204118          147  0.007193656   -149719.63      -147475 
   22600    902.84467    93.785988      2204118          147  0.007193656    -149641.7   -147504.88 
   22700    863.29721    37.662305      2204118          147  0.007193656   -149668.09   -147624.87 
   22800    855.48944   -7.5411694      2204118          147  0.007193656   -149714.23   -147689.49 
   22900    910.86852    -31.63456      2204118          147  0.007193656   -149799.62   -147643.81 
   23000    898.33002   -98.787546      2204118          147  0.007193656    -149717.1   -147590.97 
   23100    914.76076   -20.038354      2204118          147  0.007193656   -149744.04   -147579.02 
   23200    895.82524    290.27967      2204118          147  0.007193656   -149728.43   -147608.22 
   23300    858.12135    41.839968      2204118          147  0.007193656   -149663.64   -147632.67 
   23400    893.86252    37.060266      2204118          147  0.007193656   -149686.57   -147571.01 
   23500    900.79257   -128.14346      2204118          147  0.007193656   -149588.24   -147456.28 
   23600    977.20216   -40.346092      2204118          147  0.007193656      -149742    -147429.2 
   23700    894.14185    18.905424      2204118          147  0.007193656    -149682.7   -147566.48 
   23800    906.68011   -20.780511      2204118          147  0.007193656   -149763.19   -147617.29 
   23900    857.71506    155.73454      2204118          147  0.007193656    -149664.5   -147634.49 
   24000    899.81539   -105.78467      2204118          147  0.007193656   -149721.02   -147591.37 
   24100    919.83463   -196.82597      2204118          147  0.007193656   -149623.39   -147446.36 
   24200    906.67512   -41.282697      2204118          147  0.007193656   -149542.13   -147396.24 
   24300    931.80484     119.3162      2204118          147  0.007193656   -149747.26    -147541.9 
   24400    864.18436    89.957871      2204118          147  0.007193656   -149658.54   -147613.22 
   24500    918.20187    10.609639      2204118          147  0.007193656   -149781.65   -147608.49 
   24600    874.35731   -67.034273      2204118          147  0.007193656   -149676.85   -147607.45 
   24700    941.27073    58.760614      2204118          147  0.007193656   -149840.17    -147612.4 
   24800    915.04479   -63.870088      2204118          147  0.007193656   -149781.18   -147615.48 
   24900    884.28151   -26.989822      2204118          147  0.007193656   -149701.85   -147608.97 
   25000    875.75187     102.2044      2204118          147  0.007193656   -149670.31   -147597.61 
   25100    894.65435   -5.0152989      2204118          147  0.007193656   -149678.11   -147560.67 
   25200    901.48521   -109.38414      2204118          147  0.007193656   -149659.09   -147525.48 
   25300    927.39794    42.071097      2204118          147  0.007193656   -149705.16   -147510.23 
   25400    905.08785    84.884643      2204118          147  0.007193656   -149750.65   -147608.52 
   25500    913.24451   -39.292045      2204118          147  0.007193656   -149861.98   -147700.55 
   25600    842.24184    99.805006      2204118          147  0.007193656   -149681.68   -147688.29 
   25700    858.50078    63.988795      2204118          147  0.007193656   -149618.73   -147586.86 
   25800    889.14533    49.161188      2204118          147  0.007193656    -149617.8    -147513.4 
   25900    888.39092    115.27499      2204118          147  0.007193656    -149624.3   -147521.69 
   26000    906.74837    128.69056      2204118          147  0.007193656   -149739.35   -147593.29 
   26100    920.44926   -104.37061      2204118          147  0.007193656   -149821.84   -147643.35 
   26200    844.19777   -54.013822      2204118          147  0.007193656   -149712.04   -147714.03 
   26300    919.21009   -121.28514      2204118          147  0.007193656   -149915.59   -147740.04 
   26400    872.66978   -8.0898504      2204118          147  0.007193656   -149688.65   -147623.25 
   26500    954.92801    24.667467      2204118          147  0.007193656   -149771.78    -147511.7 
   26600    864.51939    -39.84163      2204118          147  0.007193656   -149562.54   -147516.43 
   26700    879.89029   -12.330618      2204118          147  0.007193656   -149679.26   -147596.77 
   26800     871.1905   -1.8774942      2204118          147  0.007193656   -149779.57   -147717.66 
   26900     875.8798    168.22688      2204118          147  0.007193656   -149890.86   -147817.86 
   27000    903.32329     60.42445      2204118          147  0.007193656   -149890.69   -147752.73 
   27100    862.63634    -71.98323      2204118          147  0.007193656   -149742.06    -147700.4 
   27200    936.63795   -18.473441      2204118          147  0.007193656   -149805.42   -147588.62 
   27300     897.0826  -0.48679629      2204118          147  0.007193656   -149679.68    -147556.5 
   27400    858.02188   -6.0623168      2204118          147  0.007193656   -149559.93   -147529.19 
   27500    919.69027    121.05972      2204118          147  0.007193656   -149629.49    -147452.8 
   27600    920.73588   -19.060832      2204118          147  0.007193656    -149658.3   -147479.14 
   27700    907.39953   -71.422654      2204118          147  0.007193656   -149768.49   -147620.89 
   27800    883.13562    14.555431      2204118          147  0.007193656    -149760.8   -147670.63 
   27900    951.85545   -14.235849      2204118          147  0.007193656   -149853.11    -147600.3 
   28000    930.79781    49.681696      2204118          147  0.007193656   -149704.74   -147501.76 
   28100    909.52391   -75.666516      2204118          147  0.007193656   -149561.03    -147408.4 
   28200     954.6392   -2.1415999      2204118          147  0.007193656   -149556.93   -147297.53 
   28300     932.1734   -183.37765      2204118          147  0.007193656   -149582.83    -147376.6 
   28400    935.63388   -82.398929      2204118          147  0.007193656    -149745.9   -147531.48 
   28500    878.92048    64.250746      2204118          147  0.007193656   -149685.79   -147605.59 
   28600    831.23791    133.61402      2204118          147  0.007193656   -149590.79   -147623.44 
   28700    876.67858    36.646201      2204118          147  0.007193656   -149669.61   -147594.72 
   28800    923.49123   -209.83259      2204118          147  0.007193656    -149711.4   -147525.71 
   28900    930.66558   -87.889901      2204118          147  0.007193656   -149610.41   -147407.75 
   29000    901.85792   -81.372076      2204118          147  0.007193656   -149554.83   -147420.35 
   29100     906.2974    212.02316      2204118          147  0.007193656   -149714.91   -147569.92 
   29200    850.88469    103.22388      2204118          147  0.007193656   -149620.48   -147606.64 
   29300    903.23757    4.5936517      2204118          147  0.007193656   -149748.01   -147610.27 
   29400    881.90632    9.2865126      2204118          147  0.007193656   -149714.05   -147626.79 
   29500    895.78515   -119.64287      2204118          147  0.007193656   -149673.47   -147553.36 
   29600    887.98197    58.133765      2204118          147  0.007193656    -149551.8   -147450.16 
   29700    933.16374   -61.049425      2204118          147  0.007193656   -149711.85   -147503.27 
   29800    890.38402    -37.94552      2204118          147  0.007193656   -149748.65   -147641.32 
   29900     918.0837   -300.43893      2204118          147  0.007193656    -149813.9   -147641.02 
   30000    929.09907   -157.35289      2204118          147  0.007193656   -149783.36    -147584.4 
   30100    933.14609    106.11242      2204118          147  0.007193656   -149743.54      -147535 
   30200    932.96326    270.52282      2204118          147  0.007193656   -149748.32   -147540.22 
   30300    857.26103    222.58712      2204118          147  0.007193656   -149720.71   -147691.77 
   30400     846.3333   -81.410981      2204118          147  0.007193656   -149729.69   -147726.62 
   30500    881.90885   -115.56887      2204118          147  0.007193656    -149711.1   -147623.83 
   30600    872.21013    64.473623      2204118          147  0.007193656   -149585.53   -147521.21 
   30700    936.87025    7.1615251      2204118          147  0.007193656   -149744.64   -147527.29 
   30800    884.87214    134.05448      2204118          147  0.007193656   -149671.91   -147577.63 
   30900    904.04196    -64.59821      2204118          147  0.007193656   -149758.72   -147619.06 
   31000    907.24244   -108.50114      2204118          147  0.007193656    -149750.5   -147603.27 
   31100    880.05925   -72.428542      2204118          147  0.007193656   -149664.17   -147581.28 
   31200    920.16972     78.54487      2204118          147  0.007193656   -149740.19   -147562.37 
   31300    901.28774    30.067185      2204118          147  0.007193656   -149738.63   -147605.49 
   31400    918.99927    -95.08034      2204118          147  0.007193656   -149947.61   -147772.56 
   31500     843.5862   -165.11724      2204118          147  0.007193656   -149828.83   -147832.26 
   31600    890.87561    -110.0604      2204118          147  0.007193656   -149848.59    -147740.1 
   31700    882.27114     68.01262      2204118          147  0.007193656   -149714.57   -147626.44 
   31800    903.58049   -7.1916604      2204118          147  0.007193656   -149708.01   -147569.45 
   31900    893.65493    3.3381575      2204118          147  0.007193656   -149689.69   -147574.62 
   32000    881.85853   -6.8977437      2204118          147  0.007193656   -149739.09   -147651.94 
   32100    848.98396   -81.026654      2204118          147  0.007193656    -149758.7   -147749.36 
   32200    873.71669   -74.027011      2204118          147  0.007193656    -149778.2   -147710.32 
   32300    968.17785    208.03481      2204118          147  0.007193656   -149821.18   -147529.73 
   32400    862.80626   -46.367882      2204118          147  0.007193656   -149561.26    -147519.2 
   32500    886.50747   -23.655754      2204118          147  0.007193656    -149674.9   -147576.74 
   32600    913.40523   -13.537249      2204118          147  0.007193656    -149824.5   -147662.69 
   32700    820.77305     94.40487      2204118          147  0.007193656   -149689.32   -147746.75 
   32800    860.60206   -6.8083483      2204118          147  0.007193656   -149820.51   -147783.67 
   32900    873.40943   -6.6590655      2204118          147  0.007193656   -149736.32   -147669.17 
   33000    930.66728    -62.00867      2204118          147  0.007193656   -149767.93   -147565.26 
   33100      902.207   -30.258779      2204118          147  0.007193656   -149626.67   -147491.36 
   33200    975.44729   -78.914382      2204118          147  0.007193656   -149781.47   -147472.81 
   33300    881.66395    22.482338      2204118          147  0.007193656   -149665.92   -147579.23 
   33400    899.60321    84.478998      2204118          147  0.007193656    -149831.8   -147702.65 
   33500    851.12538    143.48797      2204118          147  0.007193656   -149701.56   -147687.15 
   33600     949.4952   -92.315163      2204118          147  0.007193656   -149861.28   -147614.05 
   33700    895.08609   -23.275821      2204118          147  0.007193656   -149669.95   -147551.49 
   33800    847.93837    23.407361      2204118          147  0.007193656   -149549.91   -147543.04 
   33900    914.18245     347.0914      2204118          147  0.007193656   -149725.89   -147562.24 
   34000    900.51562   -8.5276829      2204118          147  0.007193656   -149738.84   -147607.53 
   34100    887.28995    91.037694      2204118          147  0.007193656   -149764.71    -147664.7 
   34200    894.34335   -152.23698      2204118          147  0.007193656   -149793.44   -147676.74 
   34300    863.64943   -28.857436      2204118          147  0.007193656   -149631.52   -147587.47 
   34400    924.79936     52.44065      2204118          147  0.007193656   -149672.21   -147483.43 
   34500     942.3304   -152.00595      2204118          147  0.007193656   -149741.07    -147510.8 
   34600    880.13923   -82.899675      2204118          147  0.007193656   -149724.22   -147641.14 
   34700    908.24878    -29.60681      2204118          147  0.007193656   -149816.77   -147667.16 
   34800    905.70353   -78.020133      2204118          147  0.007193656   -149776.24   -147632.66 
   34900    874.60251   -13.812988      2204118          147  0.007193656   -149676.62   -147606.64 
   35000    903.58308    118.02361      2204118          147  0.007193656   -149736.58   -147598.01 
   35100    869.60006   -130.20813      2204118          147  0.007193656   -149671.81   -147613.68 
   35200    908.74441    43.350894      2204118          147  0.007193656   -149763.25   -147612.46 
   35300    868.06383   -54.909812      2204118          147  0.007193656   -149719.03   -147664.53 
   35400    904.37992   -20.205415      2204118          147  0.007193656   -149802.86   -147662.41 
   35500    942.27288    152.98581      2204118          147  0.007193656   -149830.96   -147600.82 
   35600    909.59675   -61.473183      2204118          147  0.007193656   -149689.64   -147536.84 
   35700    916.29788   -6.4949639      2204118          147  0.007193656   -149626.02   -147457.36 
   35800    904.13451   -196.72805      2204118          147  0.007193656   -149598.29   -147458.42 
   35900    900.93974   -6.9556998      2204118          147  0.007193656   -149756.48   -147624.17 
   36000     894.0037   -56.261814      2204118          147  0.007193656   -149799.98   -147684.09 
   36100    878.42178    137.46968      2204118          147  0.007193656   -149760.85   -147681.83 
   36200    959.25727    81.131782      2204118          147  0.007193656   -149842.81   -147572.47 
   36300    898.47506   -139.54058      2204118          147  0.007193656   -149583.62   -147457.14 
   36400    930.47079     27.41559      2204118          147  0.007193656   -149668.39   -147466.18 
   36500    903.48193   -46.261639      2204118          147  0.007193656   -149656.95   -147518.63 
   36600    908.22791     37.19704      2204118          147  0.007193656   -149728.51   -147578.95 
   36700    872.23136    10.563582      2204118          147  0.007193656   -149678.51   -147614.14 
   36800    895.30891   -160.04237      2204118          147  0.007193656    -149767.4   -147648.41 
   36900     908.6519    -267.9762      2204118          147  0.007193656   -149851.65   -147701.09 
   37000    911.90937     2.323044      2204118          147  0.007193656   -149839.35   -147681.08 
   37100    898.71058    61.775521      2204118          147  0.007193656   -149686.36   -147559.32 
   37200    929.67909    47.509043      2204118          147  0.007193656   -149711.33      -147511 
   37300    910.66321   -72.471876      2204118          147  0.007193656   -149748.02   -147592.69 
   37400    851.47965   -53.456256      2204118          147  0.007193656   -149717.95    -147702.7 
   37500    943.04743   -88.963454      2204118          147  0.007193656   -149902.74   -147670.77 
   37600    886.69923    205.21187      2204118          147  0.007193656   -149714.85   -147616.25 
   37700     920.2404    206.10904      2204118          147  0.007193656   -149747.09   -147569.09 
   37800    934.97486   -47.778318      2204118          147  0.007193656   -149753.35   -147540.49 
   37900    886.73763   -172.34325      2204118          147  0.007193656   -149578.07   -147479.37 
   38000    956.58233    -36.64919      2204118          147  0.007193656   -149737.96   -147473.95 
   38100    852.39199   -18.533857      2204118          147  0.007193656   -149601.29   -147583.88 
   38200     879.6048   -24.208508      2204118          147  0.007193656    -149743.9   -147662.08 
   38300    867.54483    45.023883      2204118          147  0.007193656   -149741.37   -147688.09 
   38400     923.3945   -35.052581      2204118          147  0.007193656   -149841.18   -147655.72 
   38500    936.31297   -62.741418      2204118          147  0.007193656   -149694.03      -147478 
   38600    903.73521   -64.887256      2204118          147  0.007193656   -149597.62    -147458.7 
   38700    944.68066   -2.7451974      2204118          147  0.007193656   -149791.91   -147556.07 
   38800    930.87191    34.698442      2204118          147  0.007193656   -149847.29   -147644.14 
   38900    860.18094   -134.51792      2204118          147  0.007193656   -149671.69   -147635.85 
   39000    887.10333    52.630567      2204118          147  0.007193656   -149691.27   -147591.71 
   39100    904.65143    -104.5809      2204118          147  0.007193656   -149687.62   -147546.52 
   39200    941.41399   -136.13849      2204118          147  0.007193656   -149677.32   -147449.22 
   39300    879.47969    13.597476      2204118          147  0.007193656   -149486.21   -147404.69 
   39400    943.12351   -60.861484      2204118          147  0.007193656   -149763.76   -147531.61 
   39500    911.59193     95.28069      2204118          147  0.007193656   -149788.78   -147631.25 
   39600    898.47622   -118.07397      2204118          147  0.007193656   -149784.17   -147657.69 
   39700    924.13666    14.815446      2204118          147  0.007193656   -149819.25   -147632.04 
   39800     869.7568    35.251464      2204118          147  0.007193656   -149630.46   -147571.95 
   39900    947.06399    56.119815      2204118          147  0.007193656   -149740.95   -147499.48 
   40000    856.47124    -89.18028      2204118          147  0.007193656   -149532.05   -147504.98 
   40100     915.1425   -124.86938      2204118          147  0.007193656   -149751.76   -147585.84 
   40200     891.4522      82.3239      2204118          147  0.007193656   -149814.71   -147704.86 
   40300    834.38976    110.10036      2204118          147  0.007193656   -149673.13   -147698.33 
   40400    931.85226    34.850192      2204118          147  0.007193656   -149802.21   -147596.74 
   40500    912.20373   -82.845202      2204118          147  0.007193656   -149693.17    -147534.2 
   40600    934.22039   -138.86814      2204118          147  0.007193656   -149752.27   -147541.19 
   40700     905.2601   -134.47474      2204118          147  0.007193656   -149699.06   -147556.53 
   40800    868.62829    109.10928      2204118          147  0.007193656    -149701.4   -147645.56 
   40900    889.70523       121.46      2204118          147  0.007193656   -149888.57   -147782.85 
   41000    866.50223    1.4669723      2204118          147  0.007193656   -149804.99   -147754.18 
   41100    918.51459    23.368863      2204118          147  0.007193656   -149842.96   -147669.06 
   41200    923.61647   -139.76676      2204118          147  0.007193656   -149768.45   -147582.47 
   41300    846.23027    70.887487      2204118          147  0.007193656   -149551.83      -147549 
   41400    916.20681   -35.450743      2204118          147  0.007193656   -149749.89   -147581.44 
   41500    868.70112   -82.678639      2204118          147  0.007193656   -149808.29   -147752.28 
   41600    822.53844     18.78811      2204118          147  0.007193656   -149736.83   -147790.08 
   41700    898.90042   -73.411895      2204118          147  0.007193656   -149815.36   -147687.87 
   41800    909.46282    51.488983      2204118          147  0.007193656   -149752.12   -147599.63 
   41900    881.40075    68.940398      2204118          147  0.007193656   -149617.79   -147531.72 
   42000    906.13569   -12.217055      2204118          147  0.007193656   -149669.76   -147525.15 
   42100     902.3769   -97.084765      2204118          147  0.007193656   -149707.12   -147571.41 
   42200    879.05364    -12.18349      2204118          147  0.007193656   -149748.67   -147668.15 
   42300    899.33607     163.5009      2204118          147  0.007193656   -149829.99   -147701.48 
   42400    919.33875     223.0053      2204118          147  0.007193656   -149786.49   -147610.63 
   42500    898.83956   -57.017614      2204118          147  0.007193656   -149619.04    -147491.7 
   42600    902.67015   -215.75082      2204118          147  0.007193656   -149603.49   -147467.08 
   42700    900.16831   -165.98495      2204118          147  0.007193656   -149687.17   -147556.69 
   42800    914.06099    -108.7551      2204118          147  0.007193656   -149872.13   -147708.76 
   42900    869.12071    98.529064      2204118          147  0.007193656    -149755.9    -147698.9 
   43000    943.06589       7.3659      2204118          147  0.007193656   -149850.73   -147618.71 
   43100    877.78438    95.751155      2204118          147  0.007193656   -149623.69   -147546.18 
   43200    930.32484   -211.81843      2204118          147  0.007193656   -149742.33   -147540.47 
   43300     878.7324   -183.72887      2204118          147  0.007193656   -149637.33   -147557.58 
   43400    971.39891    172.03017      2204118          147  0.007193656   -149768.67    -147469.6 
   43500    929.89467    213.43273      2204118          147  0.007193656   -149656.53   -147455.69 
   43600    979.37739   -63.206006      2204118          147  0.007193656    -149876.3   -147558.34 
   43700     901.8474    -112.7596      2204118          147  0.007193656    -149802.6   -147668.14 
   43800     908.5927   -142.10085      2204118          147  0.007193656   -149816.79   -147666.36 
   43900    883.70943    43.820063      2204118          147  0.007193656   -149687.87   -147596.34 
   44000    939.94944    194.39012      2204118          147  0.007193656   -149693.67   -147469.03 
   44100    978.38629   -30.910425      2204118          147  0.007193656   -149731.89   -147416.28 
   44200    880.96113   -92.084296      2204118          147  0.007193656    -149697.7   -147612.68 
   44300    833.92791   -19.258063      2204118          147  0.007193656   -149650.97   -147677.26 
   44400    923.56412   -29.249916      2204118          147  0.007193656   -149813.97   -147628.11 
   44500    945.85416    109.70908      2204118          147  0.007193656   -149797.68   -147559.07 
   44600    869.13082     93.28055      2204118          147  0.007193656   -149583.33   -147526.31 
   44700    925.26091   -186.72256      2204118          147  0.007193656   -149709.64   -147519.77 
   44800    881.89567    -98.06889      2204118          147  0.007193656   -149724.07   -147636.83 
   44900    886.90739     66.13661      2204118          147  0.007193656   -149802.98   -147703.88 
   45000    916.32092    88.892721      2204118          147  0.007193656    -149869.1   -147700.39 
   45100    923.22165    45.241263      2204118          147  0.007193656   -149754.19   -147569.14 
   45200    890.94778   -132.99201      2204118          147  0.007193656    -149580.4   -147471.74 
   45300    942.95001    -217.3791      2204118          147  0.007193656   -149717.54    -147485.8 
   45400    943.18152   -141.11361      2204118          147  0.007193656   -149791.41   -147559.12 
   45500    901.26666    116.21086      2204118          147  0.007193656   -149746.47   -147613.39 
   45600     878.7541    147.07357      2204118          147  0.007193656   -149720.63   -147640.83 
   45700    876.87212    -55.64594      2204118          147  0.007193656   -149695.19   -147619.84 
   45800     928.7405   -49.430081      2204118          147  0.007193656    -149751.4   -147553.29 
   45900    942.62624    40.513362      2204118          147  0.007193656   -149694.27    -147463.3 
   46000    975.10466    138.26522      2204118          147  0.007193656   -149686.42   -147378.58 
   46100    961.32772    159.51429      2204118          147  0.007193656   -149652.94   -147377.71 
   46200    904.99876   -18.095888      2204118          147  0.007193656   -149675.94   -147534.02 
   46300    871.85247   -12.137339      2204118          147  0.007193656   -149691.61   -147628.14 
   46400    879.31591   -106.49629      2204118          147  0.007193656   -149707.06   -147625.93 
   46500    936.58079     68.62211      2204118          147  0.007193656   -149787.89   -147571.23 
   46600    877.36178    115.96777      2204118          147  0.007193656   -149581.13   -147504.62 
   46700      987.018   -172.02793      2204118          147  0.007193656   -149734.25   -147398.21 
   46800    943.47426   -172.39625      2204118          147  0.007193656   -149683.97   -147450.99 
   46900    861.70166    36.746451      2204118          147  0.007193656   -149639.09   -147599.64 
   47000    901.62147     56.78157      2204118          147  0.007193656   -149768.33    -147634.4 
   47100    852.04212    303.50359      2204118          147  0.007193656   -149630.19    -147613.6 
   47200    895.31068   -73.424589      2204118          147  0.007193656   -149646.63   -147527.64 
   47300    891.21079    37.754028      2204118          147  0.007193656   -149482.94   -147373.66 
   47400    905.69114   -52.536484      2204118          147  0.007193656   -149500.33   -147356.77 
   47500    919.75949   -67.076433      2204118          147  0.007193656   -149755.43   -147578.58 
   47600    878.26743    76.642141      2204118          147  0.007193656   -149709.77   -147631.12 
   47700    890.29543   -25.206523      2204118          147  0.007193656   -149725.12   -147618.01 
   47800    885.24459    -62.84403      2204118          147  0.007193656   -149633.31   -147538.14 
   47900    929.97919    3.9144711      2204118          147  0.007193656   -149667.69   -147466.65 
   48000    927.15298    66.008919      2204118          147  0.007193656   -149622.05   -147427.69 
   48100    935.20547     98.45092      2204118          147  0.007193656   -149781.46   -147568.05 
   48200      907.095    -6.375636      2204118          147  0.007193656   -149817.19   -147670.31 
   48300    893.93832    37.654963      2204118          147  0.007193656   -149786.59   -147670.85 
   48400     907.6051    17.090976      2204118          147  0.007193656   -149733.23   -147585.14 
   48500     911.0026   -143.49961      2204118          147  0.007193656   -149630.15   -147474.03 
   48600    949.75293   -20.278868      2204118          147  0.007193656   -149746.87   -147499.03 
   48700     944.6745   -18.838233      2204118          147  0.007193656   -149803.96   -147568.14 
   48800    856.54604   -20.801356      2204118          147  0.007193656   -149617.54    -147590.3 
   48900    913.81749   -148.42787      2204118          147  0.007193656   -149736.05   -147573.26 
   49000    915.25274   -44.366922      2204118          147  0.007193656   -149722.18   -147555.99 
   49100    877.57816    66.855374      2204118          147  0.007193656   -149681.31   -147604.29 
   49200    916.15643   -29.634272      2204118          147  0.007193656   -149860.11   -147691.78 
   49300    824.99152    173.70529      2204118          147  0.007193656   -149633.11   -147680.55 
   49400    885.15473     98.15066      2204118          147  0.007193656   -149690.53   -147595.58 
   49500    912.01199    16.846384      2204118          147  0.007193656   -149617.72    -147459.2 
   49600     899.4072   -84.002494      2204118          147  0.007193656   -149601.92   -147473.23 
   49700    894.65762    50.950248      2204118          147  0.007193656   -149663.84    -147546.4 
   49800    907.95183    111.96363      2204118          147  0.007193656   -149736.69   -147587.79 
   49900    905.03493  -0.50870982      2204118          147  0.007193656   -149750.05   -147608.05 
   50000    901.17761   -200.35129      2204118          147  0.007193656    -149760.2   -147627.33 
   50100    862.55647   -160.97604      2204118          147  0.007193656   -149713.33   -147671.87 
   50200    858.42218   -109.53811      2204118          147  0.007193656   -149665.91   -147634.23 
   50300    895.52406    66.336543      2204118          147  0.007193656   -149701.94   -147582.45 
   50400    907.62094     46.62858      2204118          147  0.007193656   -149659.84   -147511.72 
   50500    903.81055    166.05686      2204118          147  0.007193656   -149678.16   -147539.05 
   50600    892.18999   -18.914154      2204118          147  0.007193656   -149760.59   -147648.98 
   50700    872.08105    63.737997      2204118          147  0.007193656    -149768.6   -147704.59 
   50800    859.45833   -86.816568      2204118          147  0.007193656   -149731.89   -147697.76 
   50900    935.33705    37.520664      2204118          147  0.007193656   -149699.98   -147486.25 
   51000    962.81676   -103.23422      2204118          147  0.007193656   -149735.72   -147456.96 
   51100     884.4416    13.373415      2204118          147  0.007193656   -149631.96   -147538.69 
   51200    931.33192   -50.928697      2204118          147  0.007193656   -149830.25   -147626.01 
   51300    858.66289    -55.76187      2204118          147  0.007193656   -149702.87   -147670.62 
   51400    888.27379   -70.195201      2204118          147  0.007193656   -149722.76   -147620.43 
   51500    911.21098   -42.384346      2204118          147  0.007193656   -149739.04   -147582.42 
   51600     932.5066    192.72604      2204118          147  0.007193656    -149801.9   -147594.88 
   51700    884.76125    78.880709      2204118          147  0.007193656   -149716.74   -147622.72 
   51800    872.57125   -33.001666      2204118          147  0.007193656   -149703.77    -147638.6 
   51900     873.5067   -90.122759      2204118          147  0.007193656   -149728.81   -147661.43 
   52000    853.56937   -50.164699      2204118          147  0.007193656   -149652.78   -147632.58 
   52100     921.0323    12.832726      2204118          147  0.007193656   -149733.85   -147553.98 
   52200    926.67199     64.62547      2204118          147  0.007193656   -149685.69   -147492.48 
   52300    907.03906   -103.77092      2204118          147  0.007193656   -149658.31   -147511.57 
   52400    912.04243   -10.162653      2204118          147  0.007193656   -149822.04   -147663.46 
   52500    853.29732    -66.93855      2204118          147  0.007193656   -149710.38   -147690.82 
   52600    921.46622    71.692993      2204118          147  0.007193656   -149828.46   -147647.57 
   52700    892.92609    117.32795      2204118          147  0.007193656   -149640.71   -147527.37 
   52800    915.87476   -36.218479      2204118          147  0.007193656   -149570.33   -147402.67 
   52900    903.03628   -123.73045      2204118          147  0.007193656   -149585.19   -147447.91 
   53000    848.09815   -106.90221      2204118          147  0.007193656   -149572.08   -147564.83 
   53100    876.30652    182.79619      2204118          147  0.007193656   -149669.74   -147595.73 
   53200    842.43262    187.71058      2204118          147  0.007193656   -149645.25   -147651.41 
   53300    891.87665   -153.03094      2204118          147  0.007193656   -149796.25   -147685.39 
   53400    884.06436   -100.30422      2204118          147  0.007193656   -149715.01   -147622.64 
   53500    924.59773    196.70153      2204118          147  0.007193656   -149638.12   -147449.81 
   53600    940.78928    165.35961      2204118          147  0.007193656   -149686.34   -147459.71 
   53700    897.40007     -124.197      2204118          147  0.007193656      -149665   -147541.07 
   53800    893.71092   -160.54772      2204118          147  0.007193656   -149699.99   -147584.78 
   53900    927.72918    -50.05348      2204118          147  0.007193656   -149794.12   -147598.41 
   54000    851.63288    298.03611      2204118          147  0.007193656   -149624.63   -147609.02 
   54100    939.75874    135.33068      2204118          147  0.007193656   -149824.15   -147599.96 
   54200    869.11297    42.940703      2204118          147  0.007193656   -149712.28   -147655.29 
   54300     868.7082   -99.637743      2204118          147  0.007193656      -149769   -147712.98 
   54400    884.83689   -119.88577      2204118          147  0.007193656   -149743.18   -147648.98 
   54500    903.75586    219.03193      2204118          147  0.007193656   -149661.17   -147522.19 
   54600    898.01766      146.364      2204118          147  0.007193656   -149621.41   -147496.01 
   54700    864.20082    58.435188      2204118          147  0.007193656   -149614.42   -147569.06 
   54800    887.56234    -177.1289      2204118          147  0.007193656   -149813.05    -147712.4 
   54900    862.23647   -85.227688      2204118          147  0.007193656   -149851.19   -147810.48 
   55000    888.77085    61.441447      2204118          147  0.007193656   -149854.44   -147750.93 
   55100    935.37981    145.41367      2204118          147  0.007193656   -149853.72    -147639.9 
   55200    895.82128   -24.934665      2204118          147  0.007193656   -149706.79    -147586.6 
   55300    867.04158    -105.0103      2204118          147  0.007193656    -149598.2   -147546.12 
   55400    943.77745   -38.751067      2204118          147  0.007193656   -149647.77   -147414.07 
   55500     920.5265    164.30905      2204118          147  0.007193656   -149542.35   -147363.68 
   55600    947.19396    274.06012      2204118          147  0.007193656   -149726.48    -147484.7 
   55700     906.1493   -1.6379966      2204118          147  0.007193656   -149705.63   -147560.99 
   55800     894.1798   -362.51527      2204118          147  0.007193656    -149750.2   -147633.89 
   55900    896.93292    -74.30432      2204118          147  0.007193656   -149781.01   -147658.18 
   56000    905.42777    176.85634      2204118          147  0.007193656   -149742.54   -147599.61 
   56100    921.57116   -40.565437      2204118          147  0.007193656   -149646.09   -147464.95 
   56200    921.33597   -38.005487      2204118          147  0.007193656   -149635.67   -147455.08 
   56300    873.04074   -48.738839      2204118          147  0.007193656    -149655.5   -147589.22 
   56400    899.88509   -10.705172      2204118          147  0.007193656   -149777.73   -147647.91 
   56500    915.54377    151.88281      2204118          147  0.007193656   -149797.37   -147630.49 
   56600    890.73373    66.416762      2204118          147  0.007193656   -149691.69   -147583.53 
   56700    949.58399    68.323349      2204118          147  0.007193656   -149756.53   -147509.09 
   56800    946.92524   -166.11693      2204118          147  0.007193656   -149690.63   -147449.48 
   56900    923.71835   -33.880144      2204118          147  0.007193656   -149654.56   -147468.34 
   57000    918.93937   -89.543937      2204118          147  0.007193656   -149765.15   -147590.24 
   57100     882.4844    76.008752      2204118          147  0.007193656   -149750.48   -147661.85 
   57200    899.75281    99.974485      2204118          147  0.007193656    -149797.1   -147667.59 
   57300    874.10543   -115.93221      2204118          147  0.007193656   -149678.26   -147609.46 
   57400    911.85276   -151.47784      2204118          147  0.007193656   -149600.26   -147442.12 
   57500    920.25118   -59.898547      2204118          147  0.007193656   -149622.07   -147444.06 
   57600    884.33871    163.52622      2204118          147  0.007193656   -149618.39   -147525.37 
   57700    911.86547     56.01431      2204118          147  0.007193656   -149759.21   -147601.04 
   57800    898.22016    12.990037      2204118          147  0.007193656   -149755.59   -147629.72 
   57900    935.16731   -133.96797      2204118          147  0.007193656   -149797.38   -147584.06 
   58000    911.97688     3.015718      2204118          147  0.007193656   -149709.98   -147551.55 
   58100    876.83831    163.51055      2204118          147  0.007193656   -149689.92   -147614.65 
   58200    953.94221    62.524662      2204118          147  0.007193656   -149979.67   -147721.92 
   58300    846.34637   -147.95095      2204118          147  0.007193656   -149764.97   -147761.87 
   58400    880.57068   -101.30238      2204118          147  0.007193656   -149737.58   -147653.48 
   58500    935.42696    64.663153      2204118          147  0.007193656    -149742.5   -147528.56 
   58600    905.32285   -74.339824      2204118          147  0.007193656   -149695.84   -147553.16 
   58700    886.97662    -25.73253      2204118          147  0.007193656   -149702.95   -147603.68 
   58800     902.6684    20.615739      2204118          147  0.007193656   -149765.13   -147628.72 
   58900     876.6862   -16.485329      2204118          147  0.007193656   -149775.09   -147700.18 
   59000    852.01314    44.008868      2204118          147  0.007193656   -149843.15   -147826.64 
   59100    847.12867    91.488774      2204118          147  0.007193656   -149817.25   -147812.29 
   59200    872.93276   -108.46727      2204118          147  0.007193656   -149722.51   -147656.49 
   59300    891.26768   -164.18107      2204118          147  0.007193656   -149698.48   -147589.06 
   59400    930.48667    136.60842      2204118          147  0.007193656   -149718.31   -147516.07 
   59500    894.12312   -4.5195975      2204118          147  0.007193656   -149639.99   -147523.81 
   59600    872.04043    80.287948      2204118          147  0.007193656    -149704.9   -147640.99 
   59700    876.94083   -81.227651      2204118          147  0.007193656   -149843.97   -147768.46 
   59800    846.81125   -16.772215      2204118          147  0.007193656    -149737.8   -147733.59 
   59900    906.25512   -73.056222      2204118          147  0.007193656   -149771.23   -147626.34 
   60000    935.24874    150.55259      2204118          147  0.007193656   -149788.34   -147574.82 
   60100    927.98878    36.553288      2204118          147  0.007193656   -149771.03    -147574.7 
   60200     873.0993   -107.49617      2204118          147  0.007193656   -149704.42      -147638 
   60300    847.40052    -101.8688      2204118          147  0.007193656   -149773.69   -147768.09 
   60400    884.55481   -14.489829      2204118          147  0.007193656   -149832.91   -147739.38 
   60500     903.7782    243.92232      2204118          147  0.007193656   -149761.26   -147622.23 
   60600    910.65075    95.436116      2204118          147  0.007193656   -149734.69   -147579.39 
   60700    937.18055   -209.79765      2204118          147  0.007193656    -149782.5   -147564.42 
   60800    883.33632   -20.502685      2204118          147  0.007193656   -149659.62   -147568.97 
   60900    889.54336    143.58836      2204118          147  0.007193656   -149673.87   -147568.53 
   61000    896.97112    145.45916      2204118          147  0.007193656   -149773.33   -147650.41 
   61100    881.56571    104.39371      2204118          147  0.007193656   -149829.98   -147743.52 
   61200    896.87938   -28.672433      2204118          147  0.007193656   -149798.18   -147675.48 
   61300    948.06536     62.38362      2204118          147  0.007193656   -149806.79   -147562.94 
   61400    907.29318    11.124831      2204118          147  0.007193656   -149672.35      -147525 
   61500    906.78996   -12.856563      2204118          147  0.007193656   -149699.94   -147553.79 
   61600    927.83483   -75.720895      2204118          147  0.007193656   -149793.91   -147597.94 
   61700    876.46276   -14.563487      2204118          147  0.007193656   -149738.91   -147664.53 
   61800    841.12041   -96.820586      2204118          147  0.007193656   -149641.93    -147651.2 
   61900    959.82578    50.160998      2204118          147  0.007193656   -149708.83   -147437.15 
   62000    933.79671   -46.087206      2204118          147  0.007193656   -149645.45   -147435.37 
   62100    929.14689    119.88436      2204118          147  0.007193656   -149712.97    -147513.9 
   62200    905.30899    25.367472      2204118          147  0.007193656   -149774.59   -147631.93 
   62300    857.78673    63.843166      2204118          147  0.007193656   -149691.77   -147661.59 
   62400    898.36903    63.282074      2204118          147  0.007193656   -149729.47   -147603.25 
   62500    930.71861    70.926748      2204118          147  0.007193656   -149751.04   -147548.25 
   62600    897.79395    -84.86023      2204118          147  0.007193656   -149628.85   -147503.99 
   62700    886.59404   -82.477954      2204118          147  0.007193656   -149537.79   -147439.44 
   62800    898.70949    20.552359      2204118          147  0.007193656   -149644.85   -147517.82 
   62900    894.54575      -25.893      2204118          147  0.007193656   -149747.94   -147630.76 
   63000    850.55382    105.33885      2204118          147  0.007193656   -149670.33   -147657.27 
   63100    893.17863   -79.112618      2204118          147  0.007193656    -149717.7   -147603.76 
   63200     890.9971   -35.183248      2204118          147  0.007193656   -149546.44   -147437.66 
   63300    931.48597    40.585761      2204118          147  0.007193656   -149616.71    -147412.1 
   63400    919.72368    127.65645      2204118          147  0.007193656    -149674.5   -147497.74 
   63500    922.60868    -58.57727      2204118          147  0.007193656   -149766.37   -147582.77 
   63600    886.38835   -45.318202      2204118          147  0.007193656    -149727.1   -147629.23 
   63700     861.0089   -21.647005      2204118          147  0.007193656   -149677.08   -147639.28 
   63800    896.03017    19.185588      2204118          147  0.007193656   -149762.94   -147642.25 
   63900    867.89914    164.14696      2204118          147  0.007193656   -149690.78   -147636.66 
   64000    880.44733    63.125509      2204118          147  0.007193656   -149700.22   -147616.41 
   64100    960.15674   -335.35831      2204118          147  0.007193656   -149833.56   -147561.09 
   64200    895.13852    -189.4245      2204118          147  0.007193656   -149605.97   -147487.39 
   64300    965.47707   -35.705671      2204118          147  0.007193656   -149760.89   -147475.84 
   64400    860.61261    99.944711      2204118          147  0.007193656   -149657.55   -147620.69 
   64500    888.70566    11.590102      2204118          147  0.007193656   -149816.25   -147712.89 
   64600    904.02416    70.051911      2204118          147  0.007193656   -149818.88   -147679.27 
   64700    900.14089    43.640814      2204118          147  0.007193656   -149739.59   -147609.17 
   64800    930.46295    37.111049      2204118          147  0.007193656   -149636.82   -147434.63 
   64900    946.74622    147.14972      2204118          147  0.007193656   -149643.92   -147403.19 
   65000    944.28808   -63.596773      2204118          147  0.007193656   -149720.91   -147486.01 
   65100    859.11599    6.8129462      2204118          147  0.007193656   -149627.83   -147594.51 
   65200     904.0653   -35.633473      2204118          147  0.007193656   -149755.08   -147615.38 
   65300    940.26757   -79.912819      2204118          147  0.007193656   -149803.39      -147578 
   65400    864.50266    5.3061151      2204118          147  0.007193656    -149544.9   -147498.83 
   65500    998.60624   -41.063519      2204118          147  0.007193656   -149748.58   -147385.11 
   65600     935.2844    39.416612      2204118          147  0.007193656   -149631.25   -147417.65 
   65700    914.50945   -167.41081      2204118          147  0.007193656   -149740.09   -147575.66 
   65800    908.83952   -13.243241      2204118          147  0.007193656   -149744.21    -147593.2 
   65900     875.7835    90.946823      2204118          147  0.007193656    -149674.5   -147601.72 
   66000    924.04962   -5.8028282      2204118          147  0.007193656   -149749.49   -147562.49 
   66100    874.45226   -11.003499      2204118          147  0.007193656   -149512.17   -147442.55 
   66200    958.60453    40.500117      2204118          147  0.007193656   -149661.67   -147392.88 
   66300    908.23153   -152.54034      2204118          147  0.007193656   -149669.29   -147519.72 
   66400    901.78666   -100.73118      2204118          147  0.007193656   -149766.54   -147632.22 
   66500    884.70785   -33.157595      2204118          147  0.007193656   -149716.16   -147622.27 
   66600    925.66711   -67.219545      2204118          147  0.007193656   -149757.07   -147566.23 
   66700    919.31267   -44.508336      2204118          147  0.007193656   -149684.15   -147508.36 
   66800    921.73853    4.1359001      2204118          147  0.007193656   -149638.64    -147457.1 
   66900    946.27966    156.74791      2204118          147  0.007193656   -149731.67   -147492.05 
   67000    853.07317    48.978678      2204118          147  0.007193656   -149669.42    -147650.4 
   67100    916.38655   -20.199648      2204118          147  0.007193656   -149792.58   -147623.71 
   67200    933.81477    -47.50537      2204118          147  0.007193656   -149777.47   -147567.35 
   67300    888.01612    32.113451      2204118          147  0.007193656   -149585.08   -147483.35 
   67400    929.06359    26.927296      2204118          147  0.007193656    -149622.7   -147423.83 
   67500    904.68726     21.75096      2204118          147  0.007193656      -149672   -147530.82 
   67600    875.97225   -81.058755      2204118          147  0.007193656   -149724.74   -147651.52 
   67700    890.65563     103.8756      2204118          147  0.007193656   -149783.35   -147675.38 
   67800    907.31679   -126.82136      2204118          147  0.007193656   -149785.17   -147637.76 
   67900    946.48291   -15.055689      2204118          147  0.007193656   -149751.97   -147511.87 
   68000    929.72789    29.886567      2204118          147  0.007193656   -149635.96   -147435.51 
   68100    949.24697   -42.975238      2204118          147  0.007193656   -149782.76   -147536.12 
   68200    900.16819   -144.00542      2204118          147  0.007193656   -149797.27   -147666.78 
   68300    899.73077   -38.135225      2204118          147  0.007193656   -149754.04   -147624.59 
   68400    878.22647    116.59065      2204118          147  0.007193656   -149627.47   -147548.92 
   68500    962.69852    11.422999      2204118          147  0.007193656   -149801.21   -147522.73 
   68600    892.56289   -59.883978      2204118          147  0.007193656   -149680.91   -147568.42 
   68700    853.41902   -234.35461      2204118          147  0.007193656   -149727.64    -147707.8 
   68800    867.45127   -57.438213      2204118          147  0.007193656   -149779.48   -147726.43 
   68900    883.76005    97.172819      2204118          147  0.007193656   -149697.52   -147605.87 
   69000    952.19034     61.07588      2204118          147  0.007193656   -149795.29   -147541.68 
   69100    897.08777   -36.180182      2204118          147  0.007193656   -149692.98   -147569.79 
   69200    857.54222   -70.326328      2204118          147  0.007193656   -149641.86   -147612.27 
   69300    887.41519    -32.42787      2204118          147  0.007193656   -149745.84   -147645.54 
   69400    897.71114    90.788403      2204118          147  0.007193656   -149848.82   -147724.15 
   69500     901.9873    49.135313      2204118          147  0.007193656    -149921.6   -147786.81 
   69600    869.20448   -142.46771      2204118          147  0.007193656   -149717.81    -147660.6 
   69700    892.94096    136.66008      2204118          147  0.007193656   -149665.13   -147551.75 
   69800    912.79797    108.93287      2204118          147  0.007193656   -149713.16   -147552.79 
   69900     880.2198    91.712686      2204118          147  0.007193656   -149696.89   -147613.62 
   70000    900.76433   -29.881842      2204118          147  0.007193656   -149834.25   -147702.36 
   70100    861.85318   -40.390913      2204118          147  0.007193656   -149757.75   -147717.95 
   70200    889.13085    53.455962      2204118          147  0.007193656   -149677.37   -147573.01 
   70300    890.04499    184.51523      2204118          147  0.007193656   -149585.52   -147478.99 
   70400    943.35497    57.579127      2204118          147  0.007193656   -149728.85   -147496.15 
   70500    855.77906    42.487287      2204118          147  0.007193656   -149645.99   -147620.57 
   70600    873.54305   -60.007027      2204118          147  0.007193656   -149745.44   -147677.97 
   70700     856.2682    46.946614      2204118          147  0.007193656   -149696.45   -147669.87 
   70800    942.68126    13.988995      2204118          147  0.007193656   -149850.47   -147619.37 
   70900    891.21031   -108.49464      2204118          147  0.007193656   -149670.22   -147560.94 
   71000     910.0043   -140.50702      2204118          147  0.007193656   -149669.79   -147516.03 
   71100    932.90096   -142.78825      2204118          147  0.007193656   -149707.35    -147499.4 
   71200    875.03045   -144.49509      2204118          147  0.007193656   -149649.17   -147578.18 
   71300    930.42793   -17.085818      2204118          147  0.007193656   -149854.87   -147652.76 
   71400    919.04525   -15.273228      2204118          147  0.007193656   -149867.43   -147692.27 
   71500    903.29978   -128.30058      2204118          147  0.007193656    -149780.9      -147643 
   71600    952.58611   -154.86547      2204118          147  0.007193656   -149743.63   -147489.08 
   71700    917.05604    -19.57885      2204118          147  0.007193656   -149612.82   -147442.37 
   71800    908.14134   -115.19384      2204118          147  0.007193656    -149677.8   -147528.45 
   71900    889.71803      141.439      2204118          147  0.007193656   -149705.13   -147599.37 
   72000    893.19101   -31.345381      2204118          147  0.007193656   -149727.76   -147613.79 
   72100    863.84599   -8.3122761      2204118          147  0.007193656    -149657.4   -147612.88 
   72200    978.34183   -54.510886      2204118          147  0.007193656   -149865.68   -147550.18 
   72300    911.16907    60.093963      2204118          147  0.007193656   -149603.17   -147446.65 
   72400    945.08406   -38.764115      2204118          147  0.007193656   -149610.91   -147374.12 
   72500    924.23084   -31.866398      2204118          147  0.007193656   -149689.01   -147501.57 
   72600    902.76793   -100.59514      2204118          147  0.007193656   -149714.54    -147577.9 
   72700    870.48258   -52.206802      2204118          147  0.007193656    -149685.3   -147625.08 
   72800    912.23289    -62.54229      2204118          147  0.007193656   -149740.71   -147581.67 
   72900    914.29487    168.13366      2204118          147  0.007193656   -149645.55   -147481.63 
   73000     923.7666    3.6065555      2204118          147  0.007193656   -149561.55   -147375.21 
   73100    933.92483   -107.16355      2204118          147  0.007193656   -149612.05   -147401.67 
   73200    907.44387    122.73173      2204118          147  0.007193656   -149728.56   -147580.86 
   73300    882.61755    130.32652      2204118          147  0.007193656   -149696.81   -147607.86 
   73400    881.12912    33.390709      2204118          147  0.007193656   -149719.57   -147634.15 
   73500    919.11451    97.923392      2204118          147  0.007193656   -149781.82   -147606.49 
   73600    948.06951   -346.53774      2204118          147  0.007193656   -149760.51   -147516.66 
   73700    921.47072    11.725097      2204118          147  0.007193656   -149591.29   -147410.39 
   73800    917.17451   -9.9195356      2204118          147  0.007193656   -149638.41   -147467.68 
   73900    866.62102    208.79649      2204118          147  0.007193656   -149685.69   -147634.61 
   74000     853.0916   -125.39677      2204118          147  0.007193656   -149655.01   -147635.94 
   74100    918.80477   -134.72036      2204118          147  0.007193656   -149781.32   -147606.73 
   74200    913.62189   -129.84917      2204118          147  0.007193656      -149677   -147514.67 
   74300    941.04368    67.513422      2204118          147  0.007193656   -149647.45   -147420.22 
   74400    876.53404    38.331828      2204118          147  0.007193656   -149553.59   -147479.05 
   74500    874.77981    11.091034      2204118          147  0.007193656   -149714.14   -147643.74 
   74600    936.17566    29.731981      2204118          147  0.007193656   -149849.43   -147633.72 
   74700    917.66299   -39.551871      2204118          147  0.007193656   -149768.91   -147597.02 
   74800    931.79275    37.881456      2204118          147  0.007193656   -149707.27   -147501.93 
   74900    876.53643   -181.07825      2204118          147  0.007193656   -149581.03   -147506.47 
   75000    883.84521   -48.837997      2204118          147  0.007193656   -149716.19   -147624.34 
[...]
  381700    927.77518   -3.1976383      2204118          147  0.007193656   -149823.03   -147627.21 
  381800    926.24224   -73.027398      2204118          147  0.007193656   -149764.02   -147571.82 
  381900    927.85216    40.663722      2204118          147  0.007193656   -149789.94   -147593.93 
  382000    873.32135    215.01167      2204118          147  0.007193656   -149797.16   -147730.21 
  382100    876.30607   -4.4123499      2204118          147  0.007193656   -149853.13   -147779.12 
  382200    863.31867   -64.239677      2204118          147  0.007193656   -149762.85   -147719.58 
  382300    884.50108   -178.18223      2204118          147  0.007193656   -149687.01    -147593.6 
  382400    948.04656   -83.016917      2204118          147  0.007193656    -149793.8      -147550 
  382500    902.72474    59.329181      2204118          147  0.007193656   -149733.52   -147596.98 
  382600    872.39422   -11.435493      2204118          147  0.007193656   -149713.51   -147648.76 
  382700    890.10919   -40.039429      2204118          147  0.007193656   -149785.08    -147678.4 
  382800    878.12609   -201.59214      2204118          147  0.007193656   -149831.92    -147753.6 
  382900    896.54348   -33.168964      2204118          147  0.007193656   -149908.65   -147786.74 
  383000    874.47595    44.844118      2204118          147  0.007193656   -149712.22   -147642.54 
  383100    941.72666    106.18041      2204118          147  0.007193656   -149774.42   -147545.58 
  383200    919.75393   -61.869393      2204118          147  0.007193656   -149777.43   -147600.59 
  383300    902.90491   -79.731058      2204118          147  0.007193656   -149839.27   -147702.31 
  383400    919.11364    116.09342      2204118          147  0.007193656   -149901.25   -147725.92 
  383500    930.69792    78.297165      2204118          147  0.007193656   -149899.63   -147696.89 
  383600    880.09551   -27.332892      2204118          147  0.007193656   -149742.66   -147659.68 
  383700    895.68046   -29.031645      2204118          147  0.007193656   -149747.05   -147627.19 
  383800    884.62845   -58.162947      2204118          147  0.007193656   -149658.02   -147564.31 
  383900    906.60779   -62.824239      2204118          147  0.007193656    -149680.6   -147534.87 
  384000    920.74129    91.238833      2204118          147  0.007193656   -149817.86   -147638.69 
  384100    892.18315    60.545438      2204118          147  0.007193656   -149839.17   -147727.58 
  384200    872.22836   -155.11633      2204118          147  0.007193656   -149812.85   -147748.49 
  384300    956.45268   -75.578999      2204118          147  0.007193656   -149922.01   -147658.31 
  384400    917.82718   -2.9076192      2204118          147  0.007193656   -149718.42   -147546.14 
  384500     931.0402    -124.1066      2204118          147  0.007193656   -149716.29   -147512.74 
  384600    897.47108      -62.778      2204118          147  0.007193656    -149852.3    -147728.2 
  384700    864.36355   -81.275774      2204118          147  0.007193656   -149813.88   -147768.14 
  384800    894.51672    109.09664      2204118          147  0.007193656   -149820.78   -147703.67 
  384900    913.50565     203.7724      2204118          147  0.007193656   -149766.03   -147603.98 
  385000    923.87775   -113.12222      2204118          147  0.007193656   -149735.18   -147548.58 
  385100    922.83227   -192.74136      2204118          147  0.007193656   -149835.18   -147651.05 
  385200    878.20625   -123.13761      2204118          147  0.007193656   -149847.38   -147768.87 
  385300    906.28439      53.9111      2204118          147  0.007193656   -149896.95   -147751.99 
  385400    881.07614    206.38124      2204118          147  0.007193656   -149770.98   -147685.68 
  385500    933.83171   -8.7913839      2204118          147  0.007193656   -149834.97   -147624.81 
  385600    933.51039    -64.58026      2204118          147  0.007193656   -149809.64   -147600.24 
  385700    957.66487    -173.4157      2204118          147  0.007193656   -149887.36   -147620.79 
  385800      907.525   -2.6688816      2204118          147  0.007193656   -149820.77   -147672.87 
  385900    881.49108    282.09428      2204118          147  0.007193656   -149851.85   -147765.57 
  386000     896.9947    93.345402      2204118          147  0.007193656   -149923.55   -147800.57 
  386100    885.21572   -116.27846      2204118          147  0.007193656   -149875.28   -147780.18 
  386200      909.809   -121.88202      2204118          147  0.007193656    -149755.9   -147602.59 
  386300    930.36866   -206.56939      2204118          147  0.007193656   -149757.88   -147555.91 
  386400    936.37903    105.20972      2204118          147  0.007193656   -149840.69    -147624.5 
  386500    887.82909   -71.047151      2204118          147  0.007193656   -149851.33   -147750.05 
  386600    887.31478    51.679641      2204118          147  0.007193656   -149865.96    -147765.9 
  386700    895.38335   -248.55293      2204118          147  0.007193656   -149835.02   -147715.86 
  386800    942.58171    95.194554      2204118          147  0.007193656   -149841.82   -147610.95 
  386900    907.92539   -125.22099      2204118          147  0.007193656   -149722.42   -147573.58 
  387000    901.48356    119.99914      2204118          147  0.007193656   -149838.43   -147704.83 
  387100     884.4031   -120.70322      2204118          147  0.007193656    -149909.4   -147816.23 
  387200    846.23236    46.016333      2204118          147  0.007193656   -149812.44   -147809.61 
  387300    897.60623    26.661223      2204118          147  0.007193656   -149805.51   -147681.09 
  387400    924.98345    -82.14289      2204118          147  0.007193656   -149783.67   -147594.46 
  387500    946.67344    -98.97519      2204118          147  0.007193656   -149814.78   -147574.23 
  387600    883.20577   -172.74508      2204118          147  0.007193656   -149765.68   -147675.34 
  387700    906.29921   -114.09919      2204118          147  0.007193656   -149944.24   -147799.25 
  387800    859.29093   -113.03848      2204118          147  0.007193656   -149812.78   -147779.04 
  387900    895.84191    43.500507      2204118          147  0.007193656   -149811.58   -147691.33 
  388000    903.88181    65.068696      2204118          147  0.007193656   -149782.81   -147643.54 
  388100    912.96966    161.30234      2204118          147  0.007193656   -149757.95   -147597.17 
  388200    918.73718    20.888356      2204118          147  0.007193656   -149762.52   -147588.09 
  388300    966.35996   -88.326847      2204118          147  0.007193656   -149958.64   -147671.49 
  388400    869.48155   -59.418585      2204118          147  0.007193656   -149835.07   -147777.22 
  388500     862.6482   -93.338317      2204118          147  0.007193656   -149829.27   -147787.59 
  388600    895.56079   -19.004594      2204118          147  0.007193656   -149782.15   -147662.57 
  388700    927.42699     156.8593      2204118          147  0.007193656   -149786.84   -147591.84 
  388800    986.59092    26.947384      2204118          147  0.007193656   -149906.42   -147571.39 
  388900    918.68222   -78.290748      2204118          147  0.007193656   -149798.23   -147623.93 
  389000    908.33601    15.729129      2204118          147  0.007193656    -149787.9   -147638.08 
  389100    918.72449    -9.036302      2204118          147  0.007193656   -149846.22   -147671.82 
  389200    893.04297   -98.351059      2204118          147  0.007193656   -149853.48   -147739.86 
  389300    880.53501   -172.55743      2204118          147  0.007193656   -149893.99   -147809.97 
  389400     866.9351   -107.45055      2204118          147  0.007193656   -149925.76   -147873.93 
  389500    846.42566    89.983863      2204118          147  0.007193656   -149808.74   -147805.45 
  389600    884.66046    71.697112      2204118          147  0.007193656   -149748.07   -147654.28 
  389700    945.56374    5.6347907      2204118          147  0.007193656   -149841.18   -147603.25 
  389800     930.6117   -131.58228      2204118          147  0.007193656   -149830.39   -147627.86 
  389900    899.75992     -2.49424      2204118          147  0.007193656   -149861.65   -147732.13 
  390000    872.24603     24.22612      2204118          147  0.007193656   -149901.62   -147837.22 
  390100    865.72218    189.55387      2204118          147  0.007193656   -149894.06    -147845.1 
  390200    877.10177    41.668232      2204118          147  0.007193656   -149724.65   -147648.76 
  390300    882.89801   -34.845611      2204118          147  0.007193656    -149703.9   -147614.29 
  390400    872.72209    -93.85468      2204118          147  0.007193656    -149674.8   -147609.27 
  390500    878.76316    55.550091      2204118          147  0.007193656   -149732.66   -147652.83 
  390600    872.30381    159.33264      2204118          147  0.007193656   -149797.15   -147732.61 
  390700    844.64774     142.7213      2204118          147  0.007193656   -149802.69   -147803.61 
  390800    861.27323   -159.92485      2204118          147  0.007193656   -149832.12   -147793.69 
  390900    879.27428   -180.02264      2204118          147  0.007193656   -149691.43   -147610.39 
  391000    939.26198    96.384576      2204118          147  0.007193656   -149794.93   -147571.92 
  391100    935.23492    114.18732      2204118          147  0.007193656   -149854.95   -147641.47 
  391200    865.42355    12.323878      2204118          147  0.007193656   -149800.39   -147752.13 
  391300    907.11735   -105.28392      2204118          147  0.007193656   -149906.55   -147759.62 
  391400    901.76804   -92.660028      2204118          147  0.007193656    -149795.2   -147660.93 
  391500    907.04918   -8.4171817      2204118          147  0.007193656   -149733.86   -147587.09 
  391600    917.19427    14.093574      2204118          147  0.007193656   -149772.05   -147601.27 
  391700    874.78918     62.26387      2204118          147  0.007193656   -149732.02    -147661.6 
  391800    863.82225   -148.49595      2204118          147  0.007193656   -149750.02   -147705.55 
  391900    916.11071   -35.930073      2204118          147  0.007193656   -149891.37   -147723.15 
  392000    865.59323    83.911722      2204118          147  0.007193656   -149777.81   -147729.15 
  392100    920.97591     206.8179      2204118          147  0.007193656   -149861.97   -147682.24 
  392200    942.00598    90.781639      2204118          147  0.007193656   -149816.17   -147586.66 
  392300    890.07857   -36.110317      2204118          147  0.007193656   -149675.14   -147568.54 
  392400    892.01097   -151.92267      2204118          147  0.007193656   -149748.03   -147636.85 
  392500    866.83915   -245.61076      2204118          147  0.007193656   -149821.71   -147770.11 
  392600    840.81335     27.87438      2204118          147  0.007193656   -149762.26   -147772.25 
  392700     885.5768    130.88694      2204118          147  0.007193656   -149771.94   -147675.99 
  392800    885.76423     45.68958      2204118          147  0.007193656   -149701.71   -147605.31 
  392900    873.41369    -131.0899      2204118          147  0.007193656   -149682.84   -147615.67 
  393000    918.14346   -41.660753      2204118          147  0.007193656   -149795.99   -147622.96 
  393100    931.89937     125.0026      2204118          147  0.007193656   -149883.36   -147677.77 
  393200    889.08153    57.305357      2204118          147  0.007193656   -149864.97   -147760.72 
  393300    909.06885    3.2157303      2204118          147  0.007193656   -149960.92   -147809.37 
  393400    861.28663   -16.691952      2204118          147  0.007193656   -149912.68   -147874.22 
  393500    848.90727    95.438402      2204118          147  0.007193656   -149795.54   -147786.37 
  393600    901.18535    67.371619      2204118          147  0.007193656   -149789.43   -147656.54 
  393700    894.64448   -5.4473207      2204118          147  0.007193656   -149743.08   -147625.66 
  393800    924.28914    24.787007      2204118          147  0.007193656   -149822.16   -147634.59 
  393900    868.04809   -139.42289      2204118          147  0.007193656   -149807.33   -147752.86 
  394000    921.05053   -12.483479      2204118          147  0.007193656   -149946.44   -147766.53 
  394100    892.59466    184.38455      2204118          147  0.007193656   -149758.61   -147646.05 
  394200    872.54231    30.447829      2204118          147  0.007193656   -149596.86   -147531.76 
  394300     925.1199   -44.430093      2204118          147  0.007193656   -149777.36   -147587.82 
  394400    878.20846   -85.152808      2204118          147  0.007193656    -149763.6   -147685.09 
  394500    877.18224    141.49651      2204118          147  0.007193656   -149782.01   -147705.93 
  394600    890.33831    180.19744      2204118          147  0.007193656   -149815.62    -147708.4 
  394700    929.49646   -65.469639      2204118          147  0.007193656   -149751.73   -147551.83 
  394800    931.22275   -127.85919      2204118          147  0.007193656   -149672.06   -147468.08 
  394900    892.25531   -18.547499      2204118          147  0.007193656   -149652.76      -147541 
  395000    912.45136    23.414677      2204118          147  0.007193656   -149816.24   -147656.69 
  395100    867.28257    122.80051      2204118          147  0.007193656   -149757.66   -147705.01 
  395200    916.42222    10.168946      2204118          147  0.007193656   -149854.78   -147685.83 
  395300    919.49534   -51.369995      2204118          147  0.007193656   -149837.66   -147661.43 
  395400    862.81047    -124.3934      2204118          147  0.007193656   -149662.39   -147620.32 
  395500    947.22942    62.116594      2204118          147  0.007193656   -149774.26   -147532.39 
  395600    944.79108    115.96775      2204118          147  0.007193656   -149808.07   -147571.97 
  395700    899.64013    55.848514      2204118          147  0.007193656   -149822.23   -147692.99 
  395800    928.95916   -19.046869      2204118          147  0.007193656   -149924.22    -147725.6 
  395900    912.87429   -120.09577      2204118          147  0.007193656    -149886.6   -147726.04 
  396000    892.04162    44.635757      2204118          147  0.007193656   -149678.77   -147567.52 
  396100    931.24699   -31.834789      2204118          147  0.007193656   -149673.98   -147469.94 
  396200    879.00392    34.622379      2204118          147  0.007193656   -149622.14   -147541.74 
  396300    898.64925    -61.97776      2204118          147  0.007193656   -149754.37   -147627.48 
  396400    920.39405   -37.640678      2204118          147  0.007193656   -149850.76   -147672.41 
  396500    861.07147    101.72824      2204118          147  0.007193656   -149732.69   -147694.74 
  396600    944.04158    13.175079      2204118          147  0.007193656   -149884.58   -147650.26 
  396700    976.76705   -94.587223      2204118          147  0.007193656   -149796.47    -147484.7 
  396800    944.54295   -85.331769      2204118          147  0.007193656    -149740.9   -147505.39 
  396900    867.13138    9.7041772      2204118          147  0.007193656   -149662.04   -147609.74 
  397000    908.65989   -78.812232      2204118          147  0.007193656   -149807.46   -147656.88 
  397100    910.62211    69.526431      2204118          147  0.007193656   -149837.32   -147682.09 
  397200    898.96279      43.1226      2204118          147  0.007193656   -149801.92   -147674.29 
  397300    966.26372   -53.865706      2204118          147  0.007193656   -149788.38   -147501.46 
  397400    951.67526    10.461939      2204118          147  0.007193656   -149721.53   -147469.14 
  397500    905.97615   -86.505664      2204118          147  0.007193656   -149732.77   -147588.54 
  397600    880.87422    2.8362603      2204118          147  0.007193656   -149737.72    -147652.9 
  397700    923.86294    27.688086      2204118          147  0.007193656   -149838.47   -147651.91 
  397800    908.24803     99.90465      2204118          147  0.007193656   -149831.61      -147682 
  397900    887.92177   -35.476486      2204118          147  0.007193656    -149852.4    -147750.9 
  398000    866.95112   -41.522886      2204118          147  0.007193656   -149897.78   -147845.91 
  398100    865.13168   -69.863734      2204118          147  0.007193656   -149820.91   -147773.35 
  398200    925.16815    119.90266      2204118          147  0.007193656   -149829.41   -147639.76 
  398300     908.0752    101.10107      2204118          147  0.007193656      -149759    -147609.8 
  398400    903.85588   -33.281047      2204118          147  0.007193656   -149784.64   -147645.43 
  398500    881.17642   -28.210033      2204118          147  0.007193656   -149783.59   -147698.06 
  398600    885.55045   -147.28503      2204118          147  0.007193656   -149853.79    -147757.9 
  398700    890.92856    -33.29541      2204118          147  0.007193656   -149945.77   -147837.15 
  398800    863.70036     206.9239      2204118          147  0.007193656   -149854.33   -147810.15 
  398900    921.96989   -76.913003      2204118          147  0.007193656   -149831.15   -147649.07 
  399000    934.78526   -168.72815      2204118          147  0.007193656   -149806.54   -147594.12 
  399100    903.95794   -181.34685      2204118          147  0.007193656   -149754.59   -147615.14 
  399200    845.41387    -65.89899      2204118          147  0.007193656   -149696.01   -147695.12 
  399300    926.26072    56.196543      2204118          147  0.007193656   -149999.53   -147807.29 
  399400    879.77281    111.61734      2204118          147  0.007193656   -149960.77   -147878.55 
  399500    862.92037   -31.627391      2204118          147  0.007193656    -149848.2   -147805.87 
  399600    887.15108   -94.348072      2204118          147  0.007193656   -149746.81   -147647.13 
  399700    929.55206   -137.27035      2204118          147  0.007193656   -149788.23    -147588.2 
  399800    919.37724    237.13304      2204118          147  0.007193656   -149764.05    -147588.1 
  399900    937.89867    29.491594      2204118          147  0.007193656   -149931.97   -147712.18 
  400000    887.84927    163.78594      2204118          147  0.007193656    -149866.2   -147764.87 
  400057    871.08217    37.519026      2204118          147  0.007193656   -149835.06   -147773.42 
Loop time of 5350.94 on 16 procs for 400000 steps with 795 atoms

Performance: 1.615 ns/day, 14.864 hours/ns, 74.753 timesteps/s
99.9% CPU use with 16 MPI tasks x no OpenMP threads

MPI task timing breakdown:
Section |  min time  |  avg time  |  max time  |%varavg| %total
---------------------------------------------------------------
Pair    | 0.23749    | 1209.9     | 4369.7     |4385.2 | 22.61
Neigh   | 0.033197   | 3.1329     | 6.912      | 175.3 |  0.06
Comm    | 0.68065    | 817.04     | 3218.8     |3848.3 | 15.27
Output  | 0.44671    | 0.46366    | 0.59487    |   5.0 |  0.01
Modify  | 940.46     | 3319.2     | 5348.5     |3574.3 | 62.03
Other   |            | 1.206      |            |       |  0.02

Nlocal:        49.6875 ave         209 max           0 min
Histogram: 12 0 0 0 0 0 0 0 0 4
Nghost:        160.188 ave         427 max           0 min
Histogram: 8 0 0 0 0 4 0 0 0 4
Neighs:        3061.88 ave       12880 max           0 min
Histogram: 12 0 0 0 0 0 0 0 0 4

Total # of neighbors = 48990
Ave neighs/atom = 61.622642
Neighbor list builds = 12379
Dangerous builds = 0

write_data graphene_single_layer_ReaxFF_795_C_temp_900K.data
System init for write_data ...
Total wall time: 1:29:14
