
# System definition
read_data graphene_single_layer_test_time_9-9_real_charge.data
Reading data file ...
  orthogonal box = (-2 -2 -2) to (11 11 2)
  1 by 1 by 1 MPI processor grid
  reading atoms ...
  40 atoms
  read_data CPU = 0.010 seconds

pair_style reax/c NULL
pair_coeff * * ffield.reax.cho C
Reading potential file ffield.reax.cho with DATE: 2011-02-18
fix qeq_reax all qeq/reax 1 0.0 10.0 1.0e-6 reax/c


# Minimization
timestep 1
min_style cg
thermo 100
thermo_style custom step temp press vol lx density pe etotal
dump 2 all custom 1000 graphene_single_layer_ReaxFF_40_C.lammpstrj id type x y z
minimize 1.0e-6 1.0e-6 100 1000

CITE-CITE-CITE-CITE-CITE-CITE-CITE-CITE-CITE-CITE-CITE-CITE-CITE

Your simulation uses code contributions which should be cited:

- pair reaxff command:

@Article{Aktulga12,
 author = {H. M. Aktulga, J. C. Fogarty, S. A. Pandit, A. Y. Grama},
 title = {Parallel reactive molecular dynamics: Numerical methods and algorithmic techniques},
 journal = {Parallel Computing},
 year =    2012,
 volume =  38,
 pages =   {245--259}
}

- fix qeq/reaxff command:

@Article{Aktulga12,
 author = {H. M. Aktulga, J. C. Fogarty, S. A. Pandit, A. Y. Grama},
 title = {Parallel reactive molecular dynamics: Numerical methods and algorithmic techniques},
 journal = {Parallel Computing},
 year =    2012,
 volume =  38,
 pages =   {245--259}
}

CITE-CITE-CITE-CITE-CITE-CITE-CITE-CITE-CITE-CITE-CITE-CITE-CITE

WARNING: Using 'neigh_modify every 1 delay 0 check yes' setting during minimization (../min.cpp:187)
Neighbor list info ...
  update every 1 steps, delay 0 steps, check yes
  max neighbors/atom: 10000, page size: 100000
  master list distance cutoff = 10.4
  ghost atom cutoff = 10.4
  binsize = 5.2, bins = 3 3 1
  2 neighbor lists, perpetual/occasional/extra = 2 0 0
  (1) pair reax/c, perpetual
      attributes: half, newton off, ghost
      pair build: half/bin/newtoff/ghost
      stencil: full/ghost/bin/3d
      bin: standard
  (2) fix qeq/reax, perpetual, copy from (1)
      attributes: half, newton off, ghost
      pair build: copy
      stencil: none
      bin: none
Per MPI rank memory allocation (min/avg/max) = 38.48 | 38.48 | 38.48 Mbytes
Step Temp Press Volume Lx Density PotEng TotEng 
       0            0     285703.9          676           13    1.1801322   -6221.1328   -6221.1328 
      99            0    37012.879          676           13    1.1801322   -6789.2155   -6789.2155 
Loop time of 11.8541 on 1 procs for 99 steps with 40 atoms

100.0% CPU use with 1 MPI tasks x no OpenMP threads

Minimization stats:
  Stopping criterion = energy tolerance
  Energy initial, next-to-last, final = 
     -6221.13282795899  -6789.21265758657  -6789.21553554071
  Force two-norm initial, final = 1040.2046 319.62646
  Force max component initial, final = 272.88819 172.25296
  Final line search alpha, max atom move = 3.6183167e-05 0.0062326578
  Iterations, force evaluations = 99 770

MPI task timing breakdown:
Section |  min time  |  avg time  |  max time  |%varavg| %total
---------------------------------------------------------------
Pair    | 10.929     | 10.929     | 10.929     |   0.0 | 92.20
Neigh   | 0.029643   | 0.029643   | 0.029643   |   0.0 |  0.25
Comm    | 0.013484   | 0.013484   | 0.013484   |   0.0 |  0.11
Output  | 0          | 0          | 0          |   0.0 |  0.00
Modify  | 0.87447    | 0.87447    | 0.87447    |   0.0 |  7.38
Other   |            | 0.007361   |            |       |  0.06

Nlocal:             40 ave          40 max          40 min
Histogram: 1 0 0 0 0 0 0 0 0 0
Nghost:           2018 ave        2018 max        2018 min
Histogram: 1 0 0 0 0 0 0 0 0 0
Neighs:          10511 ave       10511 max       10511 min
Histogram: 1 0 0 0 0 0 0 0 0 0

Total # of neighbors = 10511
Ave neighs/atom = 262.775
Neighbor list builds = 4
Dangerous builds = 0

fix 1 all nvt temp 50.0 50.0 $(100.0*dt)
fix 1 all nvt temp 50.0 50.0 100
run 50000
Per MPI rank memory allocation (min/avg/max) = 37.35 | 37.35 | 37.35 Mbytes
Step Temp Press Volume Lx Density PotEng TotEng 
      99            0    37012.879          676           13    1.1801322   -6789.2155   -6789.2155 
     100    5.1506536     35835.03          676           13    1.1801322   -6789.9204   -6789.3216 
     200    644.25209    72507.278          676           13    1.1801322   -6725.2359   -6650.3405 
     300    630.65473   -25195.741          676           13    1.1801322    -6757.497   -6684.1824 
     400    620.52424     35694.06          676           13    1.1801322   -6801.1235   -6728.9865 
     500    965.42993   -18246.252          676           13    1.1801322   -6812.9861   -6700.7533 
     600    322.90879    98524.767          676           13    1.1801322   -6856.1991   -6818.6604 
     700    313.75544    67845.249          676           13    1.1801322   -6842.1803   -6805.7058 
     800    397.77146    13893.127          676           13    1.1801322   -6859.4959   -6813.2544 
     900    434.00592   -69975.847          676           13    1.1801322   -6839.0704   -6788.6165 
    1000    194.55573    16434.397          676           13    1.1801322   -6873.6154    -6850.998 
    1100    155.55374    55512.159          676           13    1.1801322   -6874.5883   -6856.5049 
    1200    235.24037   -105460.98          676           13    1.1801322   -6868.1985   -6840.8515 
    1300    207.42309   -542.84743          676           13    1.1801322   -6852.3603    -6828.247 
    1400    325.56281    39920.198          676           13    1.1801322    -6868.382   -6830.5348 
    1500    267.64425   -104341.02          676           13    1.1801322    -6847.223   -6816.1089 
    1600    353.91353    15477.941          676           13    1.1801322   -6829.4951   -6788.3521 
    1700    200.24091    40630.884          676           13    1.1801322    -6857.774   -6834.4956 
    1800    171.19682   -11190.141          676           13    1.1801322   -6821.0022   -6801.1003 
    1900     300.8359    21785.476          676           13    1.1801322   -6850.2863   -6815.3137 
    2000    243.55616    15204.103          676           13    1.1801322   -6885.3835   -6857.0697 
    2100     224.0159    13938.626          676           13    1.1801322   -6884.6618   -6858.6196 
    2200    439.45122    94099.147          676           13    1.1801322   -6860.9759    -6809.889 
    2300    251.45906   -140084.27          676           13    1.1801322        -6874   -6844.7675 
    2400    132.61813   -28655.004          676           13    1.1801322   -6842.2052   -6826.7882 
    2500    120.95769    23964.128          676           13    1.1801322   -6905.3305    -6891.269 
    2600    332.33196    17758.191          676           13    1.1801322    -6891.036   -6852.4019 
    2700    231.33541   -58155.868          676           13    1.1801322   -6890.8835   -6863.9903 
    2800    155.83214    38100.859          676           13    1.1801322   -6886.6306   -6868.5149 
    2900     114.9096   -27358.029          676           13    1.1801322    -6906.134   -6892.7756 
    3000    138.60549    74373.304          676           13    1.1801322   -6873.3097   -6857.1966 
    3100    181.41515   -22323.178          676           13    1.1801322   -6898.4947   -6877.4048 
    3200    115.11978    17746.601          676           13    1.1801322   -6880.9655   -6867.5826 
    3300    166.32149    78166.894          676           13    1.1801322   -6899.1348   -6879.7997 
    3400    163.41875   -3605.3958          676           13    1.1801322   -6903.7597    -6884.762 
    3500    138.98087   -3011.2234          676           13    1.1801322    -6895.645   -6879.4882 
    3600    57.555628   -9223.9855          676           13    1.1801322   -6905.8264   -6899.1355 
    3700    120.50193    31381.984          676           13    1.1801322   -6882.6028   -6868.5943 
    3800    133.20316   -109522.26          676           13    1.1801322   -6879.0127   -6863.5276 
    3900    84.495992   -32609.219          676           13    1.1801322   -6896.8037   -6886.9809 
    4000    94.834369   -36406.661          676           13    1.1801322   -6907.8315   -6896.8068 
    4100    82.261578    11398.464          676           13    1.1801322   -6903.9853   -6894.4222 
    4200    284.46083   -25470.873          676           13    1.1801322   -6853.4307   -6820.3617 
    4300    155.79234   -48010.976          676           13    1.1801322   -6893.2696   -6875.1585 
    4400    292.66774    86258.043          676           13    1.1801322   -6828.7976   -6794.7745 
    4500    183.19495    51644.665          676           13    1.1801322   -6886.5939   -6865.2972 
    4600     188.1174   -106873.68          676           13    1.1801322   -6886.1597   -6864.2908 
    4700    346.95472    71094.583          676           13    1.1801322   -6878.6988   -6838.3648 
    4800    202.99516    -53081.77          676           13    1.1801322   -6902.2268   -6878.6283 
    4900    205.02672    27690.436          676           13    1.1801322   -6890.5647     -6866.73 
    5000    351.64077     105514.2          676           13    1.1801322   -6882.6562   -6841.7774 
    5100    196.27629    39623.613          676           13    1.1801322   -6903.8499   -6881.0325 
    5200    49.180134   -34207.422          676           13    1.1801322   -6906.3341   -6900.6168 
    5300    260.52197   -19566.558          676           13    1.1801322   -6877.8282   -6847.5422 
    5400    170.64214   -70342.435          676           13    1.1801322   -6882.8391   -6863.0017 
    5500    158.66579   -43556.202          676           13    1.1801322   -6868.3895   -6849.9443 
    5600    263.71916   -78831.385          676           13    1.1801322   -6875.0977   -6844.4399 
    5700    102.53033     63773.54          676           13    1.1801322   -6888.9423    -6877.023 
    5800    122.62534   -37465.897          676           13    1.1801322   -6888.7827   -6874.5273 
    5900    144.77794    39702.886          676           13    1.1801322   -6899.8697   -6883.0391 
    6000    129.33786   -26663.683          676           13    1.1801322   -6902.9564   -6887.9206 
    6100    256.85262   -27987.913          676           13    1.1801322   -6906.3496   -6876.4901 
    6200     113.9028    29121.639          676           13    1.1801322   -6902.4482   -6889.2069 
    6300    167.21719    64991.616          676           13    1.1801322   -6894.9152   -6875.4759 
    6400     112.2912    9661.7046          676           13    1.1801322   -6908.1067   -6895.0526 
    6500    357.16088    2877.1214          676           13    1.1801322   -6903.8736    -6862.353 
    6600    218.68205   -8577.3822          676           13    1.1801322   -6875.1934   -6849.7712 
    6700    174.34349   -18889.297          676           13    1.1801322   -6891.0244   -6870.7567 
    6800     309.8182   -27907.032          676           13    1.1801322   -6885.9457   -6849.9288 
    6900    75.388863    82521.946          676           13    1.1801322   -6907.0918   -6898.3277 
    7000     83.48191   -43488.361          676           13    1.1801322   -6912.5621   -6902.8572 
    7100    278.50879    55347.094          676           13    1.1801322   -6850.0297   -6817.6526 
    7200    184.71579   -54638.747          676           13    1.1801322    -6877.308   -6855.8345 
    7300    370.73889   -79856.261          676           13    1.1801322   -6898.9629   -6855.8639 
    7400     235.5955    62061.882          676           13    1.1801322   -6878.4626   -6851.0742 
    7500    288.29248   -105972.42          676           13    1.1801322   -6862.9277   -6829.4132 
    7600     168.9886    10743.278          676           13    1.1801322   -6848.9539   -6829.3087 
    7700    299.47291   -69543.683          676           13    1.1801322   -6879.5198   -6844.7055 
    7800    108.29019    56045.406          676           13    1.1801322   -6890.9699    -6878.381 
    7900    173.38155    44258.008          676           13    1.1801322   -6887.1236   -6866.9677 
    8000     212.7899    1767.9697          676           13    1.1801322   -6903.5417   -6878.8046 
    8100    280.13645    181957.82          676           13    1.1801322   -6889.0851   -6856.5188 
    8200    369.29702   -38485.918          676           13    1.1801322   -6874.2054   -6831.2741 
    8300    149.66858    4740.9407          676           13    1.1801322   -6882.4965   -6865.0973 
    8400    203.09799    122695.67          676           13    1.1801322   -6881.7045    -6858.094 
    8500    79.087915   -11718.767          676           13    1.1801322   -6902.8869   -6893.6928 
    8600    75.134372    17833.175          676           13    1.1801322   -6899.7271   -6890.9926 
    8700     235.7865    12231.032          676           13    1.1801322   -6870.5729   -6843.1623 
    8800    144.40254   -7862.6508          676           13    1.1801322   -6895.2574   -6878.4704 
    8900    181.97508    -30838.19          676           13    1.1801322   -6894.5483   -6873.3934 
    9000    151.98701   -41172.157          676           13    1.1801322   -6903.5051   -6885.8364 
    9100    134.28921   -42872.383          676           13    1.1801322   -6906.3529   -6890.7416 
    9200    208.65099    39603.599          676           13    1.1801322   -6889.1279   -6864.8719 
    9300    281.05323    47242.914          676           13    1.1801322   -6867.2269    -6834.554 
    9400    148.12191   -14928.802          676           13    1.1801322   -6904.8419   -6887.6225 
    9500    91.566973    23251.046          676           13    1.1801322   -6896.6087   -6885.9639 
    9600    144.91402    -7101.989          676           13    1.1801322   -6894.2567   -6877.4102 
    9700    126.65934   -37380.042          676           13    1.1801322   -6898.0191   -6883.2948 
    9800    58.888737   -10049.267          676           13    1.1801322    -6906.395   -6899.5491 
    9900     86.94868    6152.6007          676           13    1.1801322   -6908.4905   -6898.3826 
   10000    109.08012   -67630.398          676           13    1.1801322   -6882.0831   -6869.4023 
   10100    231.43293    -25831.78          676           13    1.1801322   -6899.7765   -6872.8721 
   10200     99.50484   -12232.621          676           13    1.1801322   -6890.0715   -6878.5039 
   10300     101.8196    20185.302          676           13    1.1801322   -6885.5349   -6873.6982 
   10400     303.4916   -40491.753          676           13    1.1801322   -6870.9754   -6835.6941 
   10500    127.58132   -27591.443          676           13    1.1801322   -6885.3136   -6870.4821 
   10600    85.877353    17628.435          676           13    1.1801322   -6907.2309   -6897.2475 
   10700    276.85152    4899.2076          676           13    1.1801322   -6881.8116   -6849.6272 
   10800    128.99538    18126.427          676           13    1.1801322    -6905.692   -6890.6961 
   10900    84.717976   -103448.54          676           13    1.1801322   -6888.1541   -6878.3055 
   11000    97.379916    36725.767          676           13    1.1801322   -6908.0081   -6896.6875 
   11100    61.470382   -6315.6682          676           13    1.1801322   -6894.0479   -6886.9019 
   11200    45.381968     405.9236          676           13    1.1801322   -6907.6252   -6902.3495 
   11300    59.975919    44208.666          676           13    1.1801322   -6911.5092   -6904.5369 
   11400    64.784235   -17208.886          676           13    1.1801322   -6909.3113     -6901.78 
   11500    127.34641    76513.757          676           13    1.1801322   -6892.5465   -6877.7422 
   11600    170.45364    9653.7239          676           13    1.1801322   -6878.4948   -6858.6793 
   11700    200.35523    29742.506          676           13    1.1801322   -6909.5742   -6886.2826 
   11800    187.64112   -64640.686          676           13    1.1801322   -6894.0732   -6872.2596 
   11900    134.47329     -15370.6          676           13    1.1801322    -6894.598   -6878.9653 
   12000     174.0058   -8802.8924          676           13    1.1801322   -6889.0871   -6868.8587 
   12100    120.81047     44349.26          676           13    1.1801322   -6909.5108   -6895.4664 
   12200    179.23153   -4755.7297          676           13    1.1801322   -6905.1285   -6884.2925 
   12300    65.189802   -16352.465          676           13    1.1801322   -6907.0171   -6899.4386 
   12400    178.14882    4516.5286          676           13    1.1801322    -6886.429   -6865.7189 
   12500    150.26068    41613.147          676           13    1.1801322    -6893.747    -6876.279 
   12600    100.10725   -66022.633          676           13    1.1801322   -6905.2366    -6893.599 
   12700    75.054956   -32883.376          676           13    1.1801322   -6897.2937   -6888.5685 
   12800    231.17785    56401.681          676           13    1.1801322   -6899.5977   -6872.7229 
   12900    407.33679   -27890.757          676           13    1.1801322   -6897.2207   -6849.8671 
   13000     136.1276   -12954.967          676           13    1.1801322   -6908.3524   -6892.5273 
   13100    236.43978    22967.409          676           13    1.1801322   -6861.6412   -6834.1547 
   13200    203.63028   -19554.148          676           13    1.1801322   -6905.4535   -6881.7811 
   13300    125.01205    5732.1989          676           13    1.1801322   -6909.1106   -6894.5777 
   13400    75.566396   -51545.049          676           13    1.1801322   -6906.4239   -6897.6392 
   13500    214.32322   -25876.779          676           13    1.1801322   -6852.7326   -6827.8172 
   13600    173.53673    16703.705          676           13    1.1801322   -6892.8886   -6872.7147 
   13700    79.692706   -81907.013          676           13    1.1801322   -6905.3855   -6896.1211 
   13800    159.11567    33869.405          676           13    1.1801322   -6880.3529   -6861.8554 
   13900    193.15437    31842.883          676           13    1.1801322   -6903.2713   -6880.8168 
   14000    143.63843    49821.768          676           13    1.1801322   -6902.1283   -6885.4301 
   14100    166.62551   -39496.614          676           13    1.1801322   -6900.3311   -6880.9607 
   14200    165.74015    14688.776          676           13    1.1801322   -6904.5448   -6885.2773 
   14300    149.24563    96077.486          676           13    1.1801322   -6888.4578   -6871.1078 
   14400    314.02288   -25761.058          676           13    1.1801322   -6859.9798   -6823.4741 
   14500    146.08549    49340.121          676           13    1.1801322   -6900.5369   -6883.5542 
   14600    106.71972   -10884.121          676           13    1.1801322   -6903.6443    -6891.238 
   14700    136.81263    1702.0008          676           13    1.1801322     -6905.39   -6889.4853 
   14800    223.84884    25298.949          676           13    1.1801322   -6887.3304   -6861.3076 
   14900    338.72404   -20393.731          676           13    1.1801322   -6879.1157   -6839.7385 
   15000    115.11744    -69962.07          676           13    1.1801322   -6884.6293   -6871.2468 
   15100    221.68588    67633.662          676           13    1.1801322   -6865.9042   -6840.1329 
   15200    151.37392    21213.721          676           13    1.1801322   -6910.1033   -6892.5059 
   15300    135.12117    13887.195          676           13    1.1801322   -6903.0176   -6887.3096 
   15400    337.46757   -45920.686          676           13    1.1801322   -6859.8426   -6820.6115 
   15500    172.85514   -26697.426          676           13    1.1801322   -6893.2812   -6873.1866 
   15600    84.521564    51431.259          676           13    1.1801322   -6913.6221   -6903.7963 
   15700    64.655523   -12094.553          676           13    1.1801322   -6911.1978   -6903.6815 
   15800    132.15001   -2955.1996          676           13    1.1801322   -6869.4595   -6854.0968 
   15900    169.30257   -5350.4319          676           13    1.1801322    -6871.494   -6851.8123 
   16000     227.8352    63465.885          676           13    1.1801322   -6888.0146   -6861.5284 
   16100    239.68397    -93765.76          676           13    1.1801322   -6848.0046    -6820.141 
   16200    206.02416   -130329.06          676           13    1.1801322   -6885.2653   -6861.3147 
   16300    581.65834    2462.5503          676           13    1.1801322   -6863.7646   -6796.1459 
   16400    295.37251   -32912.965          676           13    1.1801322   -6877.3296    -6842.992 
   16500    281.04606     -78478.2          676           13    1.1801322   -6887.3476   -6854.6755 
   16600    229.14532    60117.165          676           13    1.1801322   -6866.0331   -6839.3946 
   16700    74.795112    -38724.94          676           13    1.1801322   -6911.1279   -6902.4329 
   16800     34.16529    12730.194          676           13    1.1801322   -6912.7375   -6908.7657 
   16900    43.938653   -12843.191          676           13    1.1801322   -6913.2967   -6908.1887 
   17000    40.336245    15942.448          676           13    1.1801322   -6915.5244   -6910.8353 
   17100    78.885678   -11739.049          676           13    1.1801322   -6914.3531   -6905.1825 
   17200    62.925751    13839.496          676           13    1.1801322   -6908.2785   -6900.9633 
   17300    302.00682   -11463.832          676           13    1.1801322   -6893.1182   -6858.0094 
   17400    171.23917    13674.711          676           13    1.1801322   -6899.1025   -6879.1957 
   17500    164.28175   -33895.593          676           13    1.1801322   -6866.6495   -6847.5515 
   17600    308.83624    23576.797          676           13    1.1801322   -6892.7178   -6856.8151 
   17700    48.829127   -50923.607          676           13    1.1801322   -6908.5484    -6902.872 
   17800    113.52847   -33062.602          676           13    1.1801322   -6898.1379   -6884.9401 
   17900    63.495566    -60465.35          676           13    1.1801322   -6902.4733   -6895.0919 
   18000      120.623   -3802.6777          676           13    1.1801322   -6882.1894   -6868.1668 
   18100    82.907969   -44901.347          676           13    1.1801322   -6899.9029   -6890.2647 
   18200    76.662673   -17268.957          676           13    1.1801322   -6910.4366   -6901.5245 
   18300     125.3724    36479.914          676           13    1.1801322   -6880.4087    -6865.834 
   18400    111.59359   -35891.846          676           13    1.1801322    -6904.788   -6891.8151 
   18500    256.76024   -89537.429          676           13    1.1801322   -6893.9431   -6864.0943 
   18600    136.96691    2311.5745          676           13    1.1801322   -6906.9277   -6891.0051 
   18700    110.03073   -1768.1072          676           13    1.1801322   -6893.8273   -6881.0361 
   18800    57.164328   -92629.522          676           13    1.1801322   -6912.0215    -6905.376 
   18900    41.384047   -30143.456          676           13    1.1801322   -6912.8807   -6908.0697 
   19000     26.91842    11309.555          676           13    1.1801322   -6914.1401   -6911.0108 
   19100    47.246983   -10318.055          676           13    1.1801322    -6910.748   -6905.2554 
   19200    203.17023   -41840.497          676           13    1.1801322      -6890.1   -6866.4812 
   19300    281.87658    59494.988          676           13    1.1801322   -6891.0049   -6858.2363 
   19400    261.08254    30519.534          676           13    1.1801322    -6900.734   -6870.3827 
   19500    38.139493    47087.956          676           13    1.1801322   -6913.8855   -6909.4517 
   19600    24.947451   -6033.1263          676           13    1.1801322   -6912.8274   -6909.9273 
   19700    70.181558    -17895.15          676           13    1.1801322   -6915.3103   -6907.1516 
   19800    31.833125   -29863.798          676           13    1.1801322   -6912.9783   -6909.2776 
   19900    45.377637   -17435.313          676           13    1.1801322   -6909.1749   -6903.8997 
   20000    64.962116    21527.635          676           13    1.1801322   -6897.4209   -6889.8689 
   20100    144.20043   -24037.508          676           13    1.1801322   -6893.9283   -6877.1648 
   20200    110.07668    33104.651          676           13    1.1801322    -6903.141   -6890.3444 
   20300    81.360212   -63255.091          676           13    1.1801322   -6892.0378   -6882.5795 
   20400    264.56911    34377.342          676           13    1.1801322   -6901.8209   -6871.0643 
   20500    155.76155    23337.095          676           13    1.1801322   -6908.1404   -6890.0328 
   20600    227.48555    54966.447          676           13    1.1801322   -6893.3108   -6866.8652 
   20700    90.870332    13152.469          676           13    1.1801322   -6900.6213   -6890.0575 
   20800    44.389756   -45847.276          676           13    1.1801322   -6902.1196   -6896.9592 
   20900    127.78753    -31116.57          676           13    1.1801322   -6889.6298   -6874.7743 
   21000    101.18353    11710.389          676           13    1.1801322   -6907.2239   -6895.4611 
   21100     35.14272    44728.498          676           13    1.1801322   -6914.5492   -6910.4638 
   21200    36.888733   -15065.275          676           13    1.1801322   -6915.7364   -6911.4481 
   21300    59.069912   -42841.156          676           13    1.1801322   -6915.9549   -6909.0879 
   21400    49.619848   -19779.867          676           13    1.1801322   -6908.9067   -6903.1383 
   21500    59.723871    24065.722          676           13    1.1801322   -6909.1719   -6902.2289 
   21600    41.804008   -52289.514          676           13    1.1801322    -6914.275   -6909.4152 
   21700    57.431673    40465.878          676           13    1.1801322    -6913.141   -6906.4644 
   21800    48.066704   -25904.823          676           13    1.1801322   -6912.6622   -6907.0744 
   21900    61.649984   -45720.453          676           13    1.1801322   -6914.5467   -6907.3798 
   22000    280.48866   -12956.156          676           13    1.1801322    -6905.684   -6873.0767 
   22100    376.38295    5233.3917          676           13    1.1801322   -6861.3099   -6817.5548 
   22200     111.9608    129329.45          676           13    1.1801322   -6888.9538   -6875.9382 
   22300    273.22837    32407.905          676           13    1.1801322   -6881.2004   -6849.4371 
   22400    141.45856   -25551.289          676           13    1.1801322   -6893.8883   -6877.4435 
   22500    136.19589    36170.914          676           13    1.1801322   -6900.8195   -6884.9865 
   22600    196.80204    17918.053          676           13    1.1801322   -6857.5751   -6834.6965 
   22700     192.5042    1700.4416          676           13    1.1801322    -6879.592   -6857.2131 
   22800     98.71101    32840.594          676           13    1.1801322   -6905.3499   -6893.8746 
   22900    161.05324   -42977.257          676           13    1.1801322   -6906.3061   -6887.5834 
   23000    161.26229    51867.211          676           13    1.1801322   -6853.2555   -6834.5085 
   23100    292.84802   -1875.9743          676           13    1.1801322   -6882.8816   -6848.8375 
   23200    126.64544   -17681.648          676           13    1.1801322   -6899.1813   -6884.4586 
   23300    198.25867   -25118.454          676           13    1.1801322   -6904.2512   -6881.2033 
   23400    88.379329    29891.721          676           13    1.1801322   -6901.4289   -6891.1546 
   23500    270.85336    67855.837          676           13    1.1801322   -6894.3589   -6862.8718 
   23600    159.96352    54744.797          676           13    1.1801322   -6902.7921   -6884.1961 
   23700    78.668815    16054.198          676           13    1.1801322   -6890.5898   -6881.4444 
   23800    115.51661   -46806.694          676           13    1.1801322   -6899.1933   -6885.7644 
   23900    212.03785   -37316.753          676           13    1.1801322   -6880.8098   -6856.1601 
   24000    224.37207    15169.449          676           13    1.1801322   -6898.3791   -6872.2955 
   24100    226.06982   -54132.206          676           13    1.1801322   -6879.0236   -6852.7426 
   24200    125.59094    -42834.34          676           13    1.1801322   -6904.4898   -6889.8896 
   24300    104.81406    -110849.1          676           13    1.1801322   -6894.0376   -6881.8528 
   24400    89.149388    -48935.26          676           13    1.1801322   -6904.7845   -6894.4208 
   24500     184.8219    8275.0044          676           13    1.1801322    -6883.055   -6861.5692 
   24600    256.59181    100859.15          676           13    1.1801322   -6891.8368   -6862.0076 
   24700    161.59945   -617.80588          676           13    1.1801322   -6891.4636   -6872.6774 
   24800     168.7151     26864.09          676           13    1.1801322    -6892.841   -6873.2276 
   24900    214.45729   -4658.0774          676           13    1.1801322   -6900.5717   -6875.6407 
   25000    133.71152   -4786.8412          676           13    1.1801322    -6872.514   -6856.9698 
   25100    88.264569   -41379.568          676           13    1.1801322   -6900.6501   -6890.3892 
   25200    108.88663   -46586.009          676           13    1.1801322   -6890.1314   -6877.4732 
   25300    101.02435    16535.643          676           13    1.1801322   -6900.6476   -6888.9033 
   25400    108.81307   -43869.025          676           13    1.1801322    -6902.981   -6890.3314 
   25500    75.543654   -23622.019          676           13    1.1801322   -6907.2249   -6898.4429 
   25600    187.85353    3470.5977          676           13    1.1801322   -6889.6025   -6867.7642 
   25700    87.027712    107274.87          676           13    1.1801322   -6901.6072   -6891.4901 
   25800    108.27833    36216.417          676           13    1.1801322   -6907.4647   -6894.8772 
   25900    117.24612   -18659.838          676           13    1.1801322   -6883.9807   -6870.3506 
   26000    107.11069   -29020.629          676           13    1.1801322   -6899.2882   -6886.8364 
   26100    54.325263     2152.926          676           13    1.1801322   -6915.7799   -6909.4645 
   26200    26.701727   -24677.813          676           13    1.1801322   -6914.6552   -6911.5511 
   26300    51.378878   -23478.708          676           13    1.1801322    -6917.282   -6911.3091 
   26400    53.358869    26475.875          676           13    1.1801322   -6911.9879   -6905.7848 
   26500    83.949543   -33492.131          676           13    1.1801322   -6902.6508   -6892.8916 
   26600    246.84435    28482.156          676           13    1.1801322   -6899.5591   -6870.8631 
   26700    186.47313    53083.889          676           13    1.1801322   -6880.8601   -6859.1823 
   26800    86.790799   -36316.759          676           13    1.1801322   -6907.0118   -6896.9222 
   26900    86.914079   -11330.622          676           13    1.1801322    -6908.362   -6898.2581 
   27000    211.90514   -49639.955          676           13    1.1801322   -6877.2835   -6852.6492 
   27100    167.08007   -24481.925          676           13    1.1801322   -6902.2685   -6882.8452 
   27200    102.71018    40134.276          676           13    1.1801322    -6898.834   -6886.8938 
   27300     198.1985    46328.266          676           13    1.1801322   -6884.4217   -6861.3808 
   27400    61.124405     -55918.4          676           13    1.1801322    -6909.095   -6901.9892 
   27500     35.44676    15211.982          676           13    1.1801322   -6914.5187   -6910.3979 
   27600    34.773581    22384.256          676           13    1.1801322     -6916.25   -6912.2075 
   27700    27.170976   -64064.911          676           13    1.1801322   -6913.1469   -6909.9883 
   27800     303.5641   -51104.163          676           13    1.1801322   -6888.7762   -6853.4864 
   27900    212.72439   -44168.799          676           13    1.1801322   -6889.0274   -6864.2979 
   28000    243.79905    -32598.61          676           13    1.1801322    -6903.798    -6875.456 
   28100    152.58454     8991.832          676           13    1.1801322   -6891.0297   -6873.2915 
   28200     222.3206   -80561.445          676           13    1.1801322   -6879.5692    -6853.724 
   28300    96.765311   -14082.682          676           13    1.1801322   -6885.0729   -6873.8238 
   28400    130.57688   -90897.688          676           13    1.1801322   -6882.0998     -6866.92 
   28500    172.30389    11305.285          676           13    1.1801322   -6889.1659   -6869.1353 
   28600    86.421095    47505.881          676           13    1.1801322   -6911.9906    -6901.944 
   28700     316.0163    5608.4366          676           13    1.1801322   -6893.0262   -6856.2888 
   28800    181.97053    46919.568          676           13    1.1801322   -6900.2254   -6879.0711 
   28900    95.273401   -34625.759          676           13    1.1801322   -6906.0249   -6894.9493 
   29000    333.76182   -63024.392          676           13    1.1801322   -6902.8168   -6864.0165 
   29100    162.22031   -34417.954          676           13    1.1801322   -6893.1074    -6874.249 
   29200    211.84117    1310.0142          676           13    1.1801322   -6897.9321   -6873.3052 
   29300      226.995   -50816.639          676           13    1.1801322   -6904.2403   -6877.8518 
   29400    170.94315    55375.173          676           13    1.1801322   -6898.1068   -6878.2344 
   29500    41.094666   -32446.348          676           13    1.1801322   -6913.1067   -6908.3294 
   29600    30.664186   -10034.763          676           13    1.1801322   -6916.8109   -6913.2461 
   29700    20.464462    736.97376          676           13    1.1801322   -6915.4786   -6913.0996 
   29800    172.47984     55934.12          676           13    1.1801322   -6895.8572   -6875.8062 
   29900    247.57308    17592.194          676           13    1.1801322   -6896.6713   -6867.8905 
   30000     42.94381    7466.6265          676           13    1.1801322   -6915.4246   -6910.4323 
   30100    344.04775    68569.479          676           13    1.1801322    -6874.157   -6834.1609 
   30200    217.62591    74210.366          676           13    1.1801322   -6883.2613    -6857.962 
   30300    174.26661   -30672.857          676           13    1.1801322   -6894.7314   -6874.4726 
   30400    77.460926   -6933.8446          676           13    1.1801322   -6899.9384   -6890.9335 
   30500     215.3236    40081.737          676           13    1.1801322   -6909.7454   -6884.7137 
   30600    148.96702    19031.138          676           13    1.1801322    -6890.034   -6872.7163 
   30700    132.74491    610.66739          676           13    1.1801322   -6905.8952   -6890.4634 
   30800    127.92949    39094.159          676           13    1.1801322   -6909.9353   -6895.0633 
   30900    101.94845    28060.922          676           13    1.1801322   -6887.8755   -6876.0238 
   31000    64.927935   -4985.6114          676           13    1.1801322    -6902.962   -6895.4141 
   31100    231.87152   -42439.223          676           13    1.1801322   -6898.1249   -6871.1694 
   31200     66.34012   -8384.6892          676           13    1.1801322   -6890.5057   -6882.7936 
   31300     48.99378   -48401.352          676           13    1.1801322   -6914.2551   -6908.5595 
   31400    33.777495   -27742.162          676           13    1.1801322   -6915.5726   -6911.6459 
   31500     25.82776   -32631.808          676           13    1.1801322   -6909.5724   -6906.5698 
   31600    101.06146   -38277.956          676           13    1.1801322   -6895.5006   -6883.7521 
   31700    31.018008   -14651.147          676           13    1.1801322   -6914.6874   -6911.0815 
   31800    51.982944   -46284.343          676           13    1.1801322   -6914.8476   -6908.8045 
   31900    22.829056   -18790.942          676           13    1.1801322   -6915.4504   -6912.7965 
   32000     60.36367   -19677.569          676           13    1.1801322   -6913.4805   -6906.4632 
   32100    218.28501    646.37759          676           13    1.1801322   -6896.7302   -6871.3542 
   32200    280.86072   -41628.029          676           13    1.1801322   -6885.3914   -6852.7409 
   32300    203.24693   -24566.792          676           13    1.1801322   -6893.7379   -6870.1101 
   32400    92.850019   -18768.141          676           13    1.1801322   -6900.9782   -6890.1843 
   32500    95.211347   -58985.124          676           13    1.1801322   -6881.9465    -6870.878 
   32600    160.55021    -30665.77          676           13    1.1801322   -6901.5834   -6882.9192 
   32700    208.20424    70792.398          676           13    1.1801322   -6877.0126   -6852.8085 
   32800    104.61006    7615.3507          676           13    1.1801322   -6905.7689   -6893.6078 
   32900     76.88314   -12642.101          676           13    1.1801322   -6907.4549   -6898.5171 
   33000    142.77542     -15406.7          676           13    1.1801322   -6899.4557   -6882.8578 
   33100    89.152651   -41983.704          676           13    1.1801322   -6910.8261    -6900.462 
   33200    314.70772   -22101.965          676           13    1.1801322   -6898.4273   -6861.8421 
   33300    109.42313   -50507.686          676           13    1.1801322   -6911.1675   -6898.4468 
   33400      237.063   -19739.304          676           13    1.1801322   -6896.3928   -6868.8338 
   33500    89.639958    1227.4925          676           13    1.1801322   -6902.0129   -6891.5921 
   33600    239.52024   -311.36824          676           13    1.1801322   -6906.3289   -6878.4843 
   33700    152.03069   -86570.924          676           13    1.1801322    -6898.808   -6881.1342 
   33800    155.91955   -59874.917          676           13    1.1801322    -6895.667   -6877.5411 
   33900     114.6827    26972.878          676           13    1.1801322   -6909.6749   -6896.3428 
   34000    61.475582    30134.115          676           13    1.1801322   -6911.0909   -6903.9443 
   34100    121.44234   -3075.4101          676           13    1.1801322   -6891.4043   -6877.2865 
   34200    103.68399    4070.6594          676           13    1.1801322   -6890.2735     -6878.22 
   34300    115.93731    48038.922          676           13    1.1801322   -6897.8014   -6884.3235 
   34400    47.166277    -1952.747          676           13    1.1801322   -6909.9948   -6904.5117 
   34500     58.93877    -36795.63          676           13    1.1801322   -6914.9542   -6908.1025 
   34600    29.449925   -15921.714          676           13    1.1801322   -6915.6735   -6912.2499 
   34700    23.020282    -18037.47          676           13    1.1801322   -6912.8909   -6910.2147 
   34800    48.729713   -5768.6866          676           13    1.1801322   -6911.5709    -6905.906 
   34900    136.32379     17074.28          676           13    1.1801322   -6906.7828   -6890.9349 
   35000    208.21552    -27405.45          676           13    1.1801322   -6893.3029   -6869.0975 
   35100    276.82024   -11548.149          676           13    1.1801322   -6895.7019   -6863.5211 
   35200    98.494495   -48703.586          676           13    1.1801322   -6903.6305   -6892.1803 
   35300    42.445209    27262.989          676           13    1.1801322   -6907.2125   -6902.2782 
   35400    109.25494   -16290.006          676           13    1.1801322   -6909.2778   -6896.5767 
   35500    195.25074   -8042.8552          676           13    1.1801322   -6889.3184   -6866.6201 
   35600    212.50019    49316.228          676           13    1.1801322   -6894.9429   -6870.2394 
   35700     141.7011   -19868.947          676           13    1.1801322   -6899.4531   -6882.9802 
   35800    66.876331    37070.752          676           13    1.1801322   -6906.7138   -6898.9393 
   35900    75.045225   -25346.784          676           13    1.1801322    -6914.636   -6905.9118 
   36000    45.581071    23991.852          676           13    1.1801322   -6916.3776   -6911.0787 
   36100    40.741551   -19209.618          676           13    1.1801322   -6916.2951   -6911.5589 
   36200    51.982669    15421.415          676           13    1.1801322   -6914.4244   -6908.3813 
   36300    176.86712   -6002.7634          676           13    1.1801322   -6884.7746   -6864.2136 
   36400    404.63407    32598.593          676           13    1.1801322   -6890.6773   -6843.6379 
   36500    129.32616   -19054.699          676           13    1.1801322   -6901.8259   -6886.7916 
   36600    105.12079   -21347.783          676           13    1.1801322   -6890.5291   -6878.3086 
   36700    239.50176   -36251.553          676           13    1.1801322    -6882.433   -6854.5905 
   36800    167.48731   -30155.205          676           13    1.1801322    -6906.237   -6886.7664 
   36900    92.021737   -1095.1244          676           13    1.1801322    -6912.893   -6902.1954 
   37000    101.92838    8654.1129          676           13    1.1801322   -6914.1387   -6902.2894 
   37100    112.85485        39991          676           13    1.1801322   -6884.1438   -6871.0242 
   37200     187.7626    56132.131          676           13    1.1801322   -6889.2117    -6867.384 
   37300    146.54294    -81067.64          676           13    1.1801322   -6908.5254   -6891.4896 
   37400    146.53858    44519.208          676           13    1.1801322   -6911.3878   -6894.3524 
   37500    217.62859    12946.481          676           13    1.1801322   -6887.1328   -6861.8331 
   37600    178.45154   -43139.135          676           13    1.1801322   -6903.6442   -6882.8989 
   37700    103.36246   -45988.717          676           13    1.1801322    -6884.263   -6872.2469 
   37800    191.78691    -4266.736          676           13    1.1801322   -6891.9507   -6869.6552 
   37900    249.74793    1596.4653          676           13    1.1801322   -6899.5035   -6870.4699 
   38000    63.333707   -6112.7118          676           13    1.1801322   -6900.6214   -6893.2588 
   38100    155.84962   -57090.127          676           13    1.1801322   -6895.6838   -6877.5661 
   38200    146.86586    14949.366          676           13    1.1801322   -6912.6599   -6895.5865 
   38300    119.75616   -78427.047          676           13    1.1801322   -6899.8094   -6885.8875 
   38400     234.7622   -39846.451          676           13    1.1801322   -6901.8144   -6874.5229 
   38500    194.50109   -14392.374          676           13    1.1801322   -6907.7892   -6885.1781 
   38600    87.705985   -52327.957          676           13    1.1801322   -6911.1568   -6900.9608 
   38700    47.701715   -32602.436          676           13    1.1801322   -6912.7137   -6907.1683 
   38800    146.63708   -47707.656          676           13    1.1801322   -6911.8643   -6894.8175 
   38900    35.224946   -19147.061          676           13    1.1801322   -6913.2918   -6909.1968 
   39000    23.654841      1002.43          676           13    1.1801322   -6916.1608   -6913.4109 
   39100    70.351848   -31938.351          676           13    1.1801322   -6914.5226   -6906.3441 
   39200    73.186946   -15026.143          676           13    1.1801322    -6906.248   -6897.7399 
   39300    70.104365    -21195.69          676           13    1.1801322   -6890.3141   -6882.1644 
   39400    89.695971   -13539.479          676           13    1.1801322   -6899.5195   -6889.0922 
   39500    50.767912    28970.862          676           13    1.1801322   -6908.7431   -6902.8412 
   39600     212.5433    3723.2358          676           13    1.1801322   -6892.1891   -6867.4806 
   39700    68.371951   -43220.411          676           13    1.1801322   -6911.6219   -6903.6736 
   39800    28.872831   -1936.3506          676           13    1.1801322   -6913.3127   -6909.9562 
   39900     25.88435    33367.102          676           13    1.1801322   -6916.8973   -6913.8882 
   40000     53.41129    5767.8673          676           13    1.1801322   -6913.3048   -6907.0957 
   40100    209.42922   -65898.907          676           13    1.1801322   -6901.1269   -6876.7804 
   40200    111.48302   -39556.577          676           13    1.1801322   -6899.5973   -6886.6372 
   40300    61.873596    27398.494          676           13    1.1801322   -6912.8605   -6905.6676 
   40400    24.878878    7668.7335          676           13    1.1801322   -6916.6831   -6913.7909 
   40500    27.260081   -3370.4777          676           13    1.1801322   -6917.7495   -6914.5805 
   40600    44.936467   -20949.878          676           13    1.1801322   -6908.3389   -6903.1149 
   40700    54.947762     7203.194          676           13    1.1801322     -6902.58   -6896.1922 
   40800     53.42923    8565.6655          676           13    1.1801322   -6912.8943   -6906.6831 
   40900    62.152725   -17609.966          676           13    1.1801322   -6914.9856   -6907.7603 
   41000    225.13813   -76295.238          676           13    1.1801322   -6907.8552   -6881.6825 
   41100    244.00099   -11646.567          676           13    1.1801322   -6867.2969   -6838.9314 
   41200      131.576    364.80709          676           13    1.1801322   -6896.6462   -6881.3503 
   41300    54.671791    -33226.37          676           13    1.1801322   -6912.7203   -6906.3646 
   41400    26.731974   -24612.655          676           13    1.1801322   -6915.7794   -6912.6718 
   41500    43.700157    34574.287          676           13    1.1801322   -6910.6156   -6905.5353 
   41600    41.391176   -41212.325          676           13    1.1801322   -6914.2954   -6909.4836 
   41700    57.770254   -4787.6253          676           13    1.1801322   -6911.5384   -6904.8225 
   41800    205.22494    25088.568          676           13    1.1801322   -6888.1929   -6864.3352 
   41900    134.19313   -36944.485          676           13    1.1801322   -6889.7744   -6874.1743 
   42000    228.82116   -23643.047          676           13    1.1801322   -6900.2154   -6873.6146 
   42100      133.203   -29787.348          676           13    1.1801322   -6913.3504   -6897.8653 
   42200    111.90134    -33850.85          676           13    1.1801322   -6880.2592   -6867.2504 
   42300    83.966405   -33757.235          676           13    1.1801322   -6911.8497   -6902.0885 
   42400    81.432018    32589.791          676           13    1.1801322   -6907.3303   -6897.8637 
   42500    49.035491    -7733.351          676           13    1.1801322   -6913.2786   -6907.5782 
   42600    44.200178    11777.613          676           13    1.1801322   -6915.6975   -6910.5592 
   42700    30.575345   -1600.2442          676           13    1.1801322   -6913.6413   -6910.0869 
   42800    70.971292    -27799.15          676           13    1.1801322   -6911.1765    -6902.926 
   42900    49.565936   -4490.6737          676           13    1.1801322   -6913.0751    -6907.313 
   43000    135.94991    -36194.57          676           13    1.1801322   -6901.8972   -6886.0928 
   43100    133.59775    130582.21          676           13    1.1801322   -6887.2822   -6871.7513 
   43200    181.26727   -3455.5387          676           13    1.1801322   -6903.9003   -6882.8277 
   43300    200.56737   -2540.1102          676           13    1.1801322   -6874.9391   -6851.6228 
   43400    167.44509   -19506.087          676           13    1.1801322   -6897.8016   -6878.3359 
   43500    144.48842    -6350.108          676           13    1.1801322   -6897.1679   -6880.3708 
   43600    73.981465    34579.311          676           13    1.1801322   -6899.0271   -6890.4266 
   43700    82.409637    45655.607          676           13    1.1801322   -6906.3305   -6896.7502 
   43800    164.40104   -88226.343          676           13    1.1801322   -6902.2968    -6883.185 
   43900    66.705471    4505.4159          676           13    1.1801322   -6910.3865   -6902.6319 
   44000    101.66149    22050.808          676           13    1.1801322   -6894.1007   -6882.2824 
   44100    188.40033   -35165.829          676           13    1.1801322   -6863.6118     -6841.71 
   44200    143.28845   -41399.927          676           13    1.1801322   -6900.6904   -6884.0329 
   44300    208.70099   -52786.098          676           13    1.1801322   -6902.3889   -6878.1271 
   44400    211.16531     2388.041          676           13    1.1801322   -6871.2917   -6846.7434 
   44500    110.33353    63272.112          676           13    1.1801322   -6905.1906   -6892.3641 
   44600    266.23614   -16871.513          676           13    1.1801322    -6889.545   -6858.5946 
   44700     84.98997    23515.821          676           13    1.1801322   -6903.0882    -6893.208 
   44800    186.31781    -36452.45          676           13    1.1801322    -6899.522   -6877.8622 
   44900    117.20393   -29641.917          676           13    1.1801322   -6902.4329   -6888.8077 
   45000    153.44539   -41510.311          676           13    1.1801322   -6880.9212   -6863.0829 
   45100    124.11329   -41278.625          676           13    1.1801322   -6912.8122   -6898.3839 
   45200    69.679083   -16870.077          676           13    1.1801322   -6901.8426   -6893.7423 
   45300    231.48046    38778.538          676           13    1.1801322   -6884.9827   -6858.0727 
   45400    150.85109    55926.044          676           13    1.1801322   -6888.5627    -6871.026 
   45500    93.065432   -31518.664          676           13    1.1801322   -6904.2629   -6893.4438 
   45600    134.46471    13712.348          676           13    1.1801322   -6889.3181   -6873.6863 
   45700    188.92402   -2006.8865          676           13    1.1801322   -6900.6165   -6878.6538 
   45800     176.8689    35037.208          676           13    1.1801322   -6903.8378   -6883.2765 
   45900    191.80081     28417.35          676           13    1.1801322   -6901.0137   -6878.7166 
   46000    158.18608   -49216.265          676           13    1.1801322   -6907.2278   -6888.8384 
   46100    62.106271   -11489.449          676           13    1.1801322   -6912.9179   -6905.6979 
   46200    301.80157   -68663.276          676           13    1.1801322   -6901.9447   -6866.8598 
   46300    126.07068    45813.284          676           13    1.1801322   -6895.6722   -6881.0163 
   46400    99.875715    1326.6436          676           13    1.1801322   -6895.4494   -6883.8387 
   46500     194.1407    51758.881          676           13    1.1801322    -6904.246   -6881.6769 
   46600     141.2256   -24211.155          676           13    1.1801322   -6870.1932   -6853.7755 
   46700    64.437899    25.071721          676           13    1.1801322   -6907.5718   -6900.0808 
   46800    56.211844   -50010.999          676           13    1.1801322   -6913.5694   -6907.0347 
   46900    18.583317   -60194.225          676           13    1.1801322   -6913.5777   -6911.4174 
   47000    32.548117   -25279.757          676           13    1.1801322   -6916.2669   -6912.4831 
   47100    62.525834   -18030.141          676           13    1.1801322    -6914.054   -6906.7853 
   47200    118.65062   -5291.4058          676           13    1.1801322   -6910.6586   -6896.8653 
   47300     337.6021   -8107.0536          676           13    1.1801322   -6838.2481   -6799.0013 
   47400    301.61878    1290.2193          676           13    1.1801322   -6884.7341   -6849.6705 
   47500    284.96017   -68036.857          676           13    1.1801322   -6874.5555   -6841.4284 
   47600     391.6667    28506.835          676           13    1.1801322   -6892.9109    -6847.379 
   47700    368.78203    25734.653          676           13    1.1801322   -6852.7908   -6809.9193 
   47800    386.18895    -58689.03          676           13    1.1801322   -6884.5994   -6839.7043 
   47900    241.55754   -46034.348          676           13    1.1801322   -6897.3028   -6869.2213 
   48000    87.421406   -56733.831          676           13    1.1801322   -6902.0325   -6891.8696 
   48100    258.91936   -30485.318          676           13    1.1801322   -6893.6575   -6863.5577 
   48200    116.72496   -45164.132          676           13    1.1801322   -6880.6978   -6867.1283 
   48300    179.87321   -31706.971          676           13    1.1801322   -6869.9368   -6849.0262 
   48400    77.311041   -56593.775          676           13    1.1801322    -6907.974   -6898.9865 
   48500    92.720085    43601.348          676           13    1.1801322    -6886.209   -6875.4302 
   48600    146.67255    3034.3329          676           13    1.1801322   -6901.2002   -6884.1493 
   48700    95.576559   -12629.802          676           13    1.1801322   -6910.4536   -6899.3426 
   48800    138.09105   -49527.686          676           13    1.1801322   -6907.8008   -6891.7475 
   48900    103.61189    -24169.94          676           13    1.1801322   -6887.4042   -6875.3591 
   49000    220.20078   -8253.7089          676           13    1.1801322   -6854.9046   -6829.3059 
   49100    130.44552   -71384.357          676           13    1.1801322   -6908.9341   -6893.7696 
   49200    36.930829    39304.432          676           13    1.1801322   -6906.6958   -6902.4026 
   49300     133.5625   -12337.275          676           13    1.1801322   -6898.0754   -6882.5485 
   49400    126.22341   -27282.337          676           13    1.1801322   -6901.5991   -6886.9254 
   49500    89.855917   -13443.967          676           13    1.1801322   -6900.2647   -6889.8188 
   49600    209.83428    5941.7314          676           13    1.1801322   -6880.7431   -6856.3495 
   49700    73.357444   -14289.008          676           13    1.1801322   -6912.1846   -6903.6567 
   49800    83.115396   -3272.0365          676           13    1.1801322   -6907.4333    -6897.771 
   49900    43.504268     -49039.5          676           13    1.1801322    -6884.538   -6879.4805 
   50000     129.6072   -51906.744          676           13    1.1801322   -6866.3494   -6851.2824 
   50099    187.47646   -94261.697          676           13    1.1801322   -6895.2851   -6873.4907 
Loop time of 743.783 on 1 procs for 50000 steps with 40 atoms

Performance: 5.808 ns/day, 4.132 hours/ns, 67.224 timesteps/s
100.0% CPU use with 1 MPI tasks x no OpenMP threads

MPI task timing breakdown:
Section |  min time  |  avg time  |  max time  |%varavg| %total
---------------------------------------------------------------
Pair    | 695.35     | 695.35     | 695.35     |   0.0 | 93.49
Neigh   | 0.60432    | 0.60432    | 0.60432    |   0.0 |  0.08
Comm    | 0.85189    | 0.85189    | 0.85189    |   0.0 |  0.11
Output  | 0.098442   | 0.098442   | 0.098442   |   0.0 |  0.01
Modify  | 46.665     | 46.665     | 46.665     |   0.0 |  6.27
Other   |            | 0.2113     |            |       |  0.03

Nlocal:             40 ave          40 max          40 min
Histogram: 1 0 0 0 0 0 0 0 0 0
Nghost:           2102 ave        2102 max        2102 min
Histogram: 1 0 0 0 0 0 0 0 0 0
Neighs:          10381 ave       10381 max       10381 min
Histogram: 1 0 0 0 0 0 0 0 0 0

Total # of neighbors = 10381
Ave neighs/atom = 259.525
Neighbor list builds = 72
Dangerous builds = 7

write_data graphene_single_layer_ReaxFF_40_C.data
System init for write_data ...
Total wall time: 0:12:35
