
# System definition
read_data graphene_single_layer_x-45_y-45_795_C.data
Reading data file ...
  orthogonal box = (-51.000000 -51.000000 -51.000000) to (96.000000 96.000000 51.000000)
  2 by 4 by 2 MPI processor grid
  reading atoms ...
  795 atoms
  read_data CPU = 0.040 seconds

pair_style reax/c NULL
pair_coeff * * ffield.reax.cho C
Reading potential file ffield.reax.cho with DATE: 2011-02-18
fix qeq_reax all qeq/reax 1 0.0 10.0 1.0e-6 reax/c


# Minimization
timestep 0.25
min_style cg
thermo 100
thermo_style custom step temp press vol lx density pe etotal
dump 2 all custom 1000 graphene_single_layer_ReaxFF_795_C_temp_800K.lammpstrj id type x y z
minimize 1.0e-6 1.0e-6 100 1000

CITE-CITE-CITE-CITE-CITE-CITE-CITE-CITE-CITE-CITE-CITE-CITE-CITE

Your simulation uses code contributions which should be cited:

- pair reaxff command:

@Article{Aktulga12,
 author = {H. M. Aktulga, J. C. Fogarty, S. A. Pandit, A. Y. Grama},
 title = {Parallel reactive molecular dynamics: Numerical methods and algorithmic techniques},
 journal = {Parallel Computing},
 year =    2012,
 volume =  38,
 pages =   {245--259}
}

- fix qeq/reaxff command:

@Article{Aktulga12,
 author = {H. M. Aktulga, J. C. Fogarty, S. A. Pandit, A. Y. Grama},
 title = {Parallel reactive molecular dynamics: Numerical methods and algorithmic techniques},
 journal = {Parallel Computing},
 year =    2012,
 volume =  38,
 pages =   {245--259}
}

CITE-CITE-CITE-CITE-CITE-CITE-CITE-CITE-CITE-CITE-CITE-CITE-CITE

WARNING: Using 'neigh_modify every 1 delay 0 check yes' setting during minimization (../min.cpp:188)
Neighbor list info ...
  update every 1 steps, delay 0 steps, check yes
  max neighbors/atom: 10000, page size: 100000
  master list distance cutoff = 10.4
  ghost atom cutoff = 10.4
  binsize = 5.2, bins = 29 29 20
  2 neighbor lists, perpetual/occasional/extra = 2 0 0
  (1) pair reax/c, perpetual
      attributes: half, newton off, ghost
      pair build: half/bin/newtoff/ghost
      stencil: full/ghost/bin/3d
      bin: standard
  (2) fix qeq/reax, perpetual, copy from (1)
      attributes: half, newton off, ghost
      pair build: copy
      stencil: none
      bin: none
Per MPI rank memory allocation (min/avg/max) = 7.965 | 10.90 | 14.56 Mbytes
Step Temp Press Volume Lx Density PotEng TotEng 
       0            0    4589.6155      2204118          147  0.007193656   -142445.78   -142445.78 
      57            0    1294.9092      2204118          147  0.007193656   -150031.46   -150031.46 
Loop time of 3.37112 on 16 procs for 57 steps with 795 atoms

100.0% CPU use with 16 MPI tasks x no OpenMP threads

Minimization stats:
  Stopping criterion = energy tolerance
  Energy initial, next-to-last, final = 
     -142445.777810412  -150031.434465826  -150031.460524184
  Force two-norm initial, final = 2416.1570 1787.6736
  Force max component initial, final = 272.51119 337.29483
  Final line search alpha, max atom move = 0.00017977701 0.060637855
  Iterations, force evaluations = 57 237

MPI task timing breakdown:
Section |  min time  |  avg time  |  max time  |%varavg| %total
---------------------------------------------------------------
Pair    | 0.00014251 | 0.69868    | 2.3111     | 102.1 | 20.73
Neigh   | 2.3274e-05 | 0.001536   | 0.0031789  |   3.9 |  0.05
Comm    | 0.00027584 | 0.40293    | 1.5919     |  91.2 | 11.95
Output  | 0          | 0          | 0          |   0.0 |  0.00
Modify  | 1.0426     | 1.0452     | 1.0477     |   0.2 | 31.01
Other   |            | 1.223      |            |       | 36.27

Nlocal:        49.6875 ave         209 max           0 min
Histogram: 12 0 0 0 0 0 0 0 0 4
Nghost:        162.812 ave         432 max           0 min
Histogram: 8 0 0 0 0 4 0 0 0 4
Neighs:        3113.44 ave       13116 max           0 min
Histogram: 12 0 0 0 0 0 0 0 0 4

Total # of neighbors = 49815
Ave neighs/atom = 62.660377
Neighbor list builds = 6
Dangerous builds = 0

fix 1 all nvt temp 800.0 800.0 $(100.0*dt)
fix 1 all nvt temp 800.0 800.0 25
run 400000
Per MPI rank memory allocation (min/avg/max) = 6.841 | 9.777 | 13.44 Mbytes
Step Temp Press Volume Lx Density PotEng TotEng 
      57            0    1294.9092      2204118          147  0.007193656   -150031.46   -150031.46 
     100    121.41199    1524.3542      2204118          147  0.007193656   -150304.18   -150016.83 
     200    288.71411   -716.21719      2204118          147  0.007193656   -150486.11   -149802.79 
     300    342.75514     -838.905      2204118          147  0.007193656   -150359.64   -149548.42 
     400    430.68012   -834.62234      2204118          147  0.007193656   -150202.28   -149182.97 
     500    645.84741    684.39204      2204118          147  0.007193656   -150250.26   -148721.69 
     600    574.09942    943.61832      2204118          147  0.007193656   -149635.88   -148277.13 
     700    802.63371   -273.34468      2204118          147  0.007193656   -149687.27   -147787.63 
     800    716.04933   -760.85863      2204118          147  0.007193656   -149149.08   -147454.36 
     900    864.88192   -868.57396      2204118          147  0.007193656   -149096.18   -147049.21 
    1000    1073.8463    -77.39776      2204118          147  0.007193656   -149608.57   -147067.03 
    1100    781.87077    899.79903      2204118          147  0.007193656   -149590.44   -147739.94 
    1200    716.62074    787.31882      2204118          147  0.007193656    -149591.6   -147895.53 
    1300    754.64219   -478.91276      2204118          147  0.007193656    -149559.6   -147773.54 
    1400    843.86683   -560.67057      2204118          147  0.007193656    -149522.6   -147525.37 
    1500    890.45365   -456.34342      2204118          147  0.007193656   -149596.23   -147488.74 
    1600    796.48743    347.44751      2204118          147  0.007193656   -149679.97   -147794.87 
    1700    712.45407    808.88596      2204118          147  0.007193656   -149739.19   -148052.98 
    1800    772.56141   -206.61659      2204118          147  0.007193656   -149846.28   -148017.81 
    1900    780.26708    -586.3775      2204118          147  0.007193656   -149644.65   -147797.94 
    2000    848.67526   -537.43093      2204118          147  0.007193656   -149531.26   -147522.65 
    2100    929.88885   -344.04455      2204118          147  0.007193656    -149604.6   -147403.78 
    2200    901.09949      499.663      2204118          147  0.007193656   -149896.82   -147764.14 
    2300    721.78603    831.02902      2204118          147  0.007193656   -149790.79   -148082.49 
    2400    752.65967   -66.875069      2204118          147  0.007193656   -149881.51   -148100.14 
    2500    783.45458   -273.92951      2204118          147  0.007193656   -149810.33   -147956.08 
    2600     874.3819   -274.02235      2204118          147  0.007193656    -149900.8   -147831.35 
    2700     830.4345    22.106735      2204118          147  0.007193656   -149951.45   -147986.01 
    2800    737.96494    65.668626      2204118          147  0.007193656   -149920.91   -148174.32 
    2900    756.43217   -112.95799      2204118          147  0.007193656   -149976.69   -148186.39 
    3000    761.64092   -397.59056      2204118          147  0.007193656   -149802.88   -148000.25 
    3100    858.07078   -228.20259      2204118          147  0.007193656   -149816.12   -147785.27 
    3200    841.32959    127.71445      2204118          147  0.007193656   -149801.56   -147810.33 
    3300    798.41297    416.61019      2204118          147  0.007193656   -149978.02   -148088.37 
    3400    746.99238     75.11312      2204118          147  0.007193656    -150056.9   -148288.95 
    3500    713.70674   -181.62115      2204118          147  0.007193656   -149946.31   -148257.14 
    3600    798.10285   -107.75666      2204118          147  0.007193656   -149860.46   -147971.54 
    3700    895.74597    77.609656      2204118          147  0.007193656   -149931.64   -147811.62 
    3800    832.80148    298.54443      2204118          147  0.007193656   -149904.05   -147933.01 
    3900    770.64222   -87.942493      2204118          147  0.007193656    -149982.4   -148158.47 
    4000    745.07458   -164.46971      2204118          147  0.007193656   -150004.08   -148240.66 
    4100    777.18303   -84.970023      2204118          147  0.007193656   -149924.15   -148084.74 
    4200     782.7648    22.608085      2204118          147  0.007193656   -149758.29   -147905.68 
    4300    870.80561    61.604236      2204118          147  0.007193656   -149883.48   -147822.48 
    4400    836.99081   -86.510546      2204118          147  0.007193656   -149935.19   -147954.23 
    4500    808.77956   -216.33348      2204118          147  0.007193656   -150060.64   -148146.45 
    4600    742.80834    276.29884      2204118          147  0.007193656    -149955.1   -148197.05 
    4700    762.51111    253.17868      2204118          147  0.007193656   -149876.32   -148071.64 
    4800    837.39605    125.14085      2204118          147  0.007193656   -149887.38   -147905.46 
    4900    827.26589   -42.319898      2204118          147  0.007193656   -149882.23   -147924.29 
    5000    754.85684   -246.59997      2204118          147  0.007193656   -149875.49   -148088.92 
    5100    761.79633   -17.505217      2204118          147  0.007193656   -149975.59   -148172.59 
    5200    769.98614   -17.609038      2204118          147  0.007193656   -149912.04   -148089.67 
    5300    789.51796    31.544732      2204118          147  0.007193656   -149819.55   -147950.95 
    5400    791.58013    19.474108      2204118          147  0.007193656   -149740.81   -147867.33 
    5500    850.78574    -96.06875      2204118          147  0.007193656    -149901.6      -147888 
    5600    816.40069    87.892568      2204118          147  0.007193656   -149977.25   -148045.02 
    5700    816.62984    50.575784      2204118          147  0.007193656   -150100.58   -148167.81 
    5800     748.0846    124.02177      2204118          147  0.007193656   -149940.04    -148169.5 
    5900    795.62767   -213.81505      2204118          147  0.007193656   -149914.32   -148031.26 
    6000    833.55599   -78.714544      2204118          147  0.007193656   -149934.03    -147961.2 
    6100    808.76441    71.826815      2204118          147  0.007193656   -149945.72   -148031.57 
    6200     817.6892    121.80842      2204118          147  0.007193656   -150063.44   -148128.16 
    6300    743.59138    66.126784      2204118          147  0.007193656   -149900.92   -148141.01 
    6400    780.38069   -235.53724      2204118          147  0.007193656   -149899.86   -148052.89 
    6500    822.20206    -108.8944      2204118          147  0.007193656   -149948.73   -148002.77 
    6600    808.14744   -258.31343      2204118          147  0.007193656   -149900.46   -147987.77 
    6700    855.22837   -78.432586      2204118          147  0.007193656   -150003.66   -147979.53 
    6800    801.12446    225.53947      2204118          147  0.007193656   -150014.49   -148118.42 
    6900    753.46469    133.25088      2204118          147  0.007193656   -149937.31   -148154.04 
    7000    764.53524    148.45568      2204118          147  0.007193656   -149878.15   -148068.68 
    7100    812.76105    8.3883604      2204118          147  0.007193656   -149912.89   -147989.27 
    7200    837.66953   -8.8580845      2204118          147  0.007193656   -149946.27   -147963.71 
    7300    812.99741    161.86136      2204118          147  0.007193656   -150036.74   -148112.57 
    7400    791.03159   -140.63396      2204118          147  0.007193656    -150048.2   -148176.01 
    7500    790.88584    -16.52789      2204118          147  0.007193656   -150005.21   -148133.37 
    7600    778.08101   -59.339526      2204118          147  0.007193656   -149887.29   -148045.75 
    7700    802.15144    21.609578      2204118          147  0.007193656   -149909.26   -148010.75 
    7800    791.58258    60.524048      2204118          147  0.007193656   -149933.62   -148060.13 
    7900    807.46667    101.75143      2204118          147  0.007193656   -150112.58    -148201.5 
    8000    756.45198   -20.969284      2204118          147  0.007193656   -150021.63   -148231.29 
    8100    778.69276    10.796886      2204118          147  0.007193656   -150014.22   -148171.24 
    8200    821.11059   -14.022138      2204118          147  0.007193656   -149991.71   -148048.33 
    8300    822.26057   -59.743003      2204118          147  0.007193656   -149971.52   -148025.43 
    8400    844.24908    60.947285      2204118          147  0.007193656   -150054.49   -148056.35 
    8500    795.67006    7.8286087      2204118          147  0.007193656   -150050.18   -148167.02 
    8600    814.09653    -14.41829      2204118          147  0.007193656   -150093.02   -148166.25 
    8700    809.20118     -99.6561      2204118          147  0.007193656   -150036.26   -148121.08 
    8800    805.91807   -97.592993      2204118          147  0.007193656   -149922.21    -148014.8 
    8900     821.7094   -142.87445      2204118          147  0.007193656   -149875.93   -147931.13 
    9000    798.83101    23.287989      2204118          147  0.007193656   -149861.33   -147970.69 
    9100    847.02848    45.427986      2204118          147  0.007193656   -150045.96   -148041.25 
    9200    770.86107    75.056769      2204118          147  0.007193656   -149960.38   -148135.94 
    9300    780.21276   -2.6577019      2204118          147  0.007193656   -150031.16   -148184.58 
    9400    796.32348    59.288604      2204118          147  0.007193656   -150002.17   -148117.46 
    9500    856.74022   -159.62525      2204118          147  0.007193656   -150040.71   -148013.01 
    9600    827.65591    74.274331      2204118          147  0.007193656   -149977.36   -148018.49 
    9700    786.29847    80.625399      2204118          147  0.007193656   -149993.66   -148132.68 
    9800    829.02802   -79.048071      2204118          147  0.007193656   -150098.34   -148136.23 
    9900    779.20559   -105.12331      2204118          147  0.007193656   -150005.93   -148161.73 
   10000    828.75692   -183.56569      2204118          147  0.007193656   -150065.65   -148104.18 
   10100    850.51455    112.87593      2204118          147  0.007193656   -150052.06   -148039.09 
   10200    823.29406    9.9383662      2204118          147  0.007193656   -150061.99   -148113.45 
   10300    769.78418    71.024552      2204118          147  0.007193656   -150034.81   -148212.91 
   10400    778.74604    97.050784      2204118          147  0.007193656   -150038.57   -148195.47 
   10500    787.85302     19.40367      2204118          147  0.007193656   -150001.29   -148136.62 
   10600      845.592    84.642436      2204118          147  0.007193656   -150027.01   -148025.69 
   10700    802.71927   -5.2660935      2204118          147  0.007193656   -149934.31   -148034.46 
   10800    819.89344   -13.792473      2204118          147  0.007193656   -150017.69    -148077.2 
   10900    818.88175    -29.40803      2204118          147  0.007193656   -150076.97   -148138.87 
   11000    786.43841   -34.340993      2204118          147  0.007193656   -150037.55   -148176.24 
   11100    807.75022   -155.93526      2204118          147  0.007193656   -150127.01   -148215.25 
   11200    777.64335   -148.44508      2204118          147  0.007193656   -150102.75   -148262.25 
   11300    788.52079   -100.75881      2204118          147  0.007193656   -150047.43   -148181.19 
   11400    804.89759    26.572384      2204118          147  0.007193656   -149979.98   -148074.97 
   11500    834.60172    76.332796      2204118          147  0.007193656    -150029.4   -148054.09 
   11600    781.05228    45.570076      2204118          147  0.007193656   -149981.05   -148132.48 
   11700    807.00224    29.909266      2204118          147  0.007193656   -150125.12   -148215.14 
   11800    798.84197   -1.5877991      2204118          147  0.007193656   -150108.98   -148218.31 
   11900    766.56705    84.448552      2204118          147  0.007193656   -149995.37   -148181.09 
   12000    803.97693   -116.10481      2204118          147  0.007193656   -150034.28   -148131.46 
   12100    830.05665   -112.98787      2204118          147  0.007193656   -150037.61   -148073.06 
   12200    792.86993   -117.11375      2204118          147  0.007193656   -149937.54      -148061 
   12300    817.71846     66.64606      2204118          147  0.007193656   -149995.97   -148060.62 
   12400    803.09588   -53.160331      2204118          147  0.007193656   -150045.22   -148144.48 
   12500    790.85564   -25.901041      2204118          147  0.007193656      -150086   -148214.23 
   12600    799.05805    40.414013      2204118          147  0.007193656   -150114.44   -148223.26 
   12700    801.98871    61.457908      2204118          147  0.007193656   -150188.33   -148290.21 
   12800    763.05832    12.702849      2204118          147  0.007193656   -150132.12   -148326.14 
   12900    778.58682   -9.5508351      2204118          147  0.007193656   -150023.59   -148180.86 
   13000    807.13318    35.169767      2204118          147  0.007193656   -150006.48   -148096.19 
   13100    830.29182    164.20113      2204118          147  0.007193656   -150030.29   -148065.18 
   13200    823.55909    119.96366      2204118          147  0.007193656   -150056.51   -148107.34 
   13300    800.92154    57.548563      2204118          147  0.007193656   -150123.88   -148228.29 
   13400    806.34814   -258.97708      2204118          147  0.007193656   -150111.28   -148202.85 
   13500    811.06895   -70.992124      2204118          147  0.007193656   -150042.69   -148123.08 
   13600    809.70035    11.810557      2204118          147  0.007193656   -149985.55   -148069.18 
   13700    802.82764    128.19699      2204118          147  0.007193656    -149990.1   -148089.99 
   13800    808.35527     34.99438      2204118          147  0.007193656   -150039.94   -148126.76 
   13900    781.65304    -31.57498      2204118          147  0.007193656   -149991.63   -148141.64 
   14000    807.86951    105.27588      2204118          147  0.007193656   -150009.12   -148097.08 
   14100    829.59507    99.487874      2204118          147  0.007193656   -150044.32   -148080.86 
   14200    781.31797    -79.16799      2204118          147  0.007193656   -150022.89    -148173.7 
   14300     779.5896   -48.862388      2204118          147  0.007193656   -150112.53   -148267.42 
   14400    766.94088    -87.06446      2204118          147  0.007193656    -150061.7   -148246.53 
   14500    778.28676    -124.8237      2204118          147  0.007193656   -149966.39   -148124.37 
   14600     824.0198    172.80027      2204118          147  0.007193656   -150031.61   -148081.35 
   14700    813.16259   -92.474714      2204118          147  0.007193656   -150022.84   -148098.28 
   14800    762.29363    77.977708      2204118          147  0.007193656   -149907.31   -148103.14 
   14900    837.31551   -139.87923      2204118          147  0.007193656   -150141.41   -148159.69 
   15000    760.25905    71.094038      2204118          147  0.007193656   -150062.52   -148263.17 
   15100    734.31492    177.77823      2204118          147  0.007193656   -149997.32   -148259.37 
   15200    769.69333    104.63964      2204118          147  0.007193656   -149980.04   -148158.35 
   15300    800.36881    82.571364      2204118          147  0.007193656   -149958.79   -148064.51 
   15400    818.78811    40.360663      2204118          147  0.007193656   -150027.14   -148089.26 
   15500    831.77107    30.298974      2204118          147  0.007193656   -150141.44   -148172.83 
   15600    799.38854    99.260078      2204118          147  0.007193656   -150146.13   -148254.16 
   15700    777.96424    81.479382      2204118          147  0.007193656   -150090.03   -148248.77 
   15800    755.78867   -43.057451      2204118          147  0.007193656   -149897.05   -148108.28 
   15900    807.41324   -63.788767      2204118          147  0.007193656   -149953.09   -148042.14 
   16000    799.01544    42.145022      2204118          147  0.007193656   -149980.11   -148089.03 
   16100    818.59343    94.294798      2204118          147  0.007193656    -150098.1   -148160.68 
   16200    794.17597   -130.88902      2204118          147  0.007193656   -150087.03    -148207.4 
   16300    752.58886    59.573614      2204118          147  0.007193656   -149972.44   -148191.24 
   16400     806.9212    56.122927      2204118          147  0.007193656   -150073.49    -148163.7 
   16500    804.87623   -93.782596      2204118          147  0.007193656   -150023.19   -148118.24 
   16600    818.67338    27.381016      2204118          147  0.007193656   -150061.34   -148123.74 
   16700    815.27782    61.364606      2204118          147  0.007193656    -150118.2   -148188.63 
   16800    781.12045   -47.009385      2204118          147  0.007193656   -150177.44   -148328.71 
   16900    771.94581   -120.53456      2204118          147  0.007193656   -150132.23   -148305.21 
   17000    775.40891   -100.23465      2204118          147  0.007193656   -150051.53   -148216.32 
   17100    823.88031   -112.52925      2204118          147  0.007193656   -150071.51   -148121.58 
   17200    810.41644    152.39437      2204118          147  0.007193656   -150018.72   -148100.66 
   17300    815.23994    130.05594      2204118          147  0.007193656   -150018.89   -148089.41 
   17400    789.07471   -14.853732      2204118          147  0.007193656    -150066.8   -148199.25 
   17500    794.73688   -87.883006      2204118          147  0.007193656   -150142.31   -148261.35 
   17600    791.77881    14.023332      2204118          147  0.007193656    -150085.9   -148211.94 
   17700    806.63697    183.39204      2204118          147  0.007193656   -150050.53   -148141.42 
   17800    801.64557    208.94269      2204118          147  0.007193656   -150042.21   -148144.91 
   17900    787.28038   -159.13091      2204118          147  0.007193656   -150034.59   -148171.28 
   18000    780.75268    -86.50716      2204118          147  0.007193656   -150017.31   -148169.45 
   18100    829.37077   -132.76958      2204118          147  0.007193656   -150065.42    -148102.5 
   18200    834.36833    99.860972      2204118          147  0.007193656   -149974.76   -148000.01 
   18300    794.22508   -45.042472      2204118          147  0.007193656   -149908.64    -148028.9 
   18400    804.68695   -75.929122      2204118          147  0.007193656   -150055.18   -148150.68 
   18500    791.97708   -146.21438      2204118          147  0.007193656   -150058.91   -148184.49 
   18600    792.12605    135.00417      2204118          147  0.007193656   -150050.96   -148176.19 
   18700    785.57811    199.30002      2204118          147  0.007193656   -149977.44   -148118.17 
   18800    821.75675   -23.298949      2204118          147  0.007193656   -149939.78   -147994.88 
   18900    830.75359   -105.99694      2204118          147  0.007193656   -149905.74   -147939.54 
   19000    793.51318   -93.315943      2204118          147  0.007193656   -149925.82   -148047.76 
   19100    742.68218    60.226516      2204118          147  0.007193656    -149915.8   -148158.04 
   19200    780.59482     69.18187      2204118          147  0.007193656   -150026.95   -148179.47 
   19300    802.78872   -275.80976      2204118          147  0.007193656   -150047.64   -148147.63 
   19400    825.01852   -206.70606      2204118          147  0.007193656      -149994   -148041.37 
   19500     817.5119   -25.885705      2204118          147  0.007193656   -149919.97   -147985.12 
   19600    852.69915   -67.785965      2204118          147  0.007193656   -150049.55   -148031.41 
   19700    849.25227   -33.078739      2204118          147  0.007193656   -150105.95   -148095.97 
   19800    798.18445    -61.32444      2204118          147  0.007193656   -150034.28   -148145.16 
   19900    775.19426   -19.217819      2204118          147  0.007193656   -150013.89   -148179.19 
   20000     799.8322   -24.419377      2204118          147  0.007193656   -150057.38   -148164.37 
   20100    820.35554    146.87041      2204118          147  0.007193656   -150015.45   -148073.86 
   20200    809.45709    85.854953      2204118          147  0.007193656   -149915.32   -147999.53 
   20300     822.6807   -43.525109      2204118          147  0.007193656   -150012.76   -148065.67 
   20400    796.23042   -112.14481      2204118          147  0.007193656    -150076.6   -148192.12 
   20500    777.45999   -206.52834      2204118          147  0.007193656   -150027.02   -148186.95 
   20600    821.63536    29.144962      2204118          147  0.007193656   -150068.03   -148123.42 
   20700    812.54192    186.93233      2204118          147  0.007193656   -149978.43   -148055.33 
   20800    825.30338   -94.386468      2204118          147  0.007193656   -150038.98   -148085.69 
   20900    786.63091   -64.613788      2204118          147  0.007193656   -150097.79   -148236.02 
   21000    780.52173   -85.874976      2204118          147  0.007193656   -150085.26   -148237.95 
   21100    797.32503    206.44496      2204118          147  0.007193656   -150072.31   -148185.23 
   21200    801.07911    96.121972      2204118          147  0.007193656   -149942.04   -148046.08 
   21300      791.705   -69.076448      2204118          147  0.007193656   -149831.03   -147957.25 
   21400    832.49911   -170.92934      2204118          147  0.007193656   -150051.09   -148080.77 
   21500    826.77091   -88.581197      2204118          147  0.007193656    -150153.2   -148196.43 
   21600    808.24371    37.200455      2204118          147  0.007193656   -150102.78   -148189.86 
   21700     822.0385    45.627094      2204118          147  0.007193656   -150084.04   -148138.47 
   21800    787.72104     34.94891      2204118          147  0.007193656   -149944.08   -148079.73 
   21900    841.91565    11.965539      2204118          147  0.007193656   -149998.22    -148005.6 
   22000    858.25626   -48.294476      2204118          147  0.007193656   -149983.83   -147952.54 
   22100    821.57682    60.072975      2204118          147  0.007193656   -150030.92   -148086.45 
   22200     819.2734    100.75114      2204118          147  0.007193656   -150102.17   -148163.14 
   22300    796.22934    29.549626      2204118          147  0.007193656   -150082.61   -148198.13 
   22400    783.10795    105.23244      2204118          147  0.007193656   -149986.47   -148133.04 
   22500    785.21173   -30.600457      2204118          147  0.007193656   -149895.09   -148036.68 
   22600    834.71402    53.437526      2204118          147  0.007193656   -149943.93   -147968.36 
   22700    813.63518   -12.787842      2204118          147  0.007193656   -149983.76   -148058.08 
   22800    786.57025   -312.46707      2204118          147  0.007193656   -150030.03    -148168.4 
   22900    800.65862   -164.50492      2204118          147  0.007193656   -150033.13   -148138.16 
   23000    803.27131     76.39673      2204118          147  0.007193656   -149975.97   -148074.82 
   23100    815.93289    105.59725      2204118          147  0.007193656   -149970.97   -148039.85 
   23200    797.16783    142.63463      2204118          147  0.007193656   -150007.37   -148120.67 
   23300    758.61604   -125.62534      2204118          147  0.007193656   -150027.83   -148232.37 
   23400    761.01127   -23.493984      2204118          147  0.007193656   -149979.15   -148178.02 
   23500    804.66752    5.2253831      2204118          147  0.007193656   -149993.27   -148088.82 
   23600    866.17936    73.177737      2204118          147  0.007193656   -150114.21   -148064.17 
   23700    801.15078    53.414321      2204118          147  0.007193656   -150026.07   -148129.94 
   23800    782.19723   -146.74399      2204118          147  0.007193656   -150013.28   -148162.01 
   23900    791.00314   -162.87716      2204118          147  0.007193656   -150014.18   -148142.07 
   24000    813.61885   -152.67381      2204118          147  0.007193656   -150046.86   -148121.21 
   24100    824.38336    72.881328      2204118          147  0.007193656   -150035.52    -148084.4 
   24200    831.98887   -48.867953      2204118          147  0.007193656   -150015.18   -148046.06 
   24300    801.22091    6.3283214      2204118          147  0.007193656   -149994.83   -148098.53 
   24400    785.86605   -112.44615      2204118          147  0.007193656   -150048.09   -148188.13 
   24500    815.70386     87.34402      2204118          147  0.007193656   -150120.89   -148190.31 
   24600     795.7101   -54.993595      2204118          147  0.007193656      -150006   -148122.74 
   24700    811.60302    115.45798      2204118          147  0.007193656   -149887.84   -147966.97 
   24800     831.0828   -2.2843351      2204118          147  0.007193656    -149966.5   -147999.52 
   24900    768.75721    -9.196637      2204118          147  0.007193656   -149918.36    -148098.9 
   25000    775.30267   -22.064158      2204118          147  0.007193656   -149961.85    -148126.9 
   25100    735.42839    41.785975      2204118          147  0.007193656   -149911.67   -148171.08 
   25200    785.55735   -61.398028      2204118          147  0.007193656    -150046.2   -148186.97 
   25300    772.21301   -151.28298      2204118          147  0.007193656    -150106.6   -148278.95 
   25400    753.26075   -99.962593      2204118          147  0.007193656   -150065.45   -148282.66 
   25500    832.35717   -15.087148      2204118          147  0.007193656   -150113.52   -148143.53 
   25600     808.5655    -14.00705      2204118          147  0.007193656   -149994.54   -148080.85 
   25700    803.21896    146.18583      2204118          147  0.007193656   -149962.88   -148061.85 
   25800    815.74882   -55.104221      2204118          147  0.007193656   -150030.24   -148099.56 
   25900    788.41897    77.262256      2204118          147  0.007193656   -150012.04   -148146.04 
   26000    754.07325      189.855      2204118          147  0.007193656    -150087.3   -148302.59 
   26100    748.38378    154.03611      2204118          147  0.007193656   -150035.38   -148264.13 
   26200    787.41433   -213.97451      2204118          147  0.007193656    -150020.1   -148156.48 
   26300    791.61869    58.112597      2204118          147  0.007193656    -149988.9   -148115.33 
   26400    773.01264    4.7705988      2204118          147  0.007193656   -149901.69   -148072.15 
   26500    838.52713    133.73161      2204118          147  0.007193656   -149978.51   -147993.92 
   26600     849.4327   -97.129985      2204118          147  0.007193656   -149949.65   -147939.25 
   26700     837.9643    66.680093      2204118          147  0.007193656   -150007.99   -148024.73 
   26800    781.30884    3.1432616      2204118          147  0.007193656    -149987.1   -148137.93 
   26900    810.45541    183.31899      2204118          147  0.007193656   -150084.64   -148166.48 
   27000    775.69151    25.375807      2204118          147  0.007193656   -150019.82   -148183.95 
   27100    827.83558     1.215552      2204118          147  0.007193656   -150114.31   -148155.02 
   27200    824.99073     5.698141      2204118          147  0.007193656   -150019.82   -148067.27 
   27300    816.34189   -58.175602      2204118          147  0.007193656   -149933.82   -148001.73 
   27400    836.61744   -50.906857      2204118          147  0.007193656   -150036.83   -148056.76 
   27500    866.19117     61.20646      2204118          147  0.007193656   -150242.05   -148191.98 
   27600    778.32908    18.436806      2204118          147  0.007193656   -150040.55   -148198.42 
   27700    761.57105    57.760654      2204118          147  0.007193656   -149929.44   -148126.98 
   27800    820.44693   -94.150092      2204118          147  0.007193656   -150002.14   -148060.34 
   27900    795.04172   -153.71749      2204118          147  0.007193656   -149897.85   -148016.18 
   28000    806.83978     168.6809      2204118          147  0.007193656   -149888.99    -147979.4 
   28100    827.64718    -20.60846      2204118          147  0.007193656   -150057.74    -148098.9 
   28200     788.0424    20.734383      2204118          147  0.007193656   -150048.23   -148183.13 
   28300    737.04009   -62.959219      2204118          147  0.007193656   -149947.43   -148203.03 
   28400    818.83198     98.11531      2204118          147  0.007193656   -150068.59   -148130.61 
   28500    896.12945    9.3354901      2204118          147  0.007193656   -150115.15   -147994.22 
   28600    808.46561    116.15436      2204118          147  0.007193656   -149910.71   -147997.26 
   28700    823.37419    33.791237      2204118          147  0.007193656   -150022.58   -148073.85 
   28800    774.58286   -33.757957      2204118          147  0.007193656   -149949.15   -148115.89 
   28900    811.18228   -136.38843      2204118          147  0.007193656   -150064.62   -148144.74 
   29000    824.47419   -113.28553      2204118          147  0.007193656   -150115.66   -148164.32 
   29100    829.62209    44.977423      2204118          147  0.007193656   -150106.24   -148142.72 
   29200    764.53718    107.85684      2204118          147  0.007193656   -149940.79   -148131.31 
   29300    829.89673    32.338477      2204118          147  0.007193656   -150056.08   -148091.92 
   29400    834.61012    63.160451      2204118          147  0.007193656   -150022.86   -148047.53 
   29500    823.25292   -116.41536      2204118          147  0.007193656   -149984.34    -148035.9 
   29600     762.9397   -146.85343      2204118          147  0.007193656   -149933.54   -148127.84 
   29700    785.58836    119.02245      2204118          147  0.007193656   -150066.89   -148207.59 
   29800    778.16804    82.841848      2204118          147  0.007193656    -150023.1   -148181.36 
   29900    849.54491    150.47345      2204118          147  0.007193656   -150098.56   -148087.89 
   30000    821.48872    128.64387      2204118          147  0.007193656   -149886.15   -147941.88 
   30100     860.0829   -25.270608      2204118          147  0.007193656   -149888.54   -147852.93 
   30200    795.86772     6.274114      2204118          147  0.007193656   -149848.59   -147964.96 
   30300    793.60927    5.9755979      2204118          147  0.007193656    -149912.7   -148034.42 
   30400    805.97699    109.26009      2204118          147  0.007193656   -150030.37   -148122.82 
   30500    789.13142    53.598571      2204118          147  0.007193656   -150071.77   -148204.08 
   30600    776.31437    74.151295      2204118          147  0.007193656   -150075.82   -148238.47 
   30700    792.21633   -166.88605      2204118          147  0.007193656    -150031.9   -148156.92 
   30800    818.60331    193.18097      2204118          147  0.007193656   -149958.56   -148021.12 
   30900    840.34671   -88.972213      2204118          147  0.007193656   -150024.39   -148035.49 
   31000    806.95714    162.87929      2204118          147  0.007193656   -150035.51   -148125.63 
   31100    788.24188   -168.80187      2204118          147  0.007193656   -150035.76   -148170.18 
   31200    768.30124   -69.841702      2204118          147  0.007193656   -149985.06   -148166.67 
   31300    795.87602   -55.472943      2204118          147  0.007193656   -149997.83   -148114.18 
   31400    815.12734     142.9406      2204118          147  0.007193656   -149998.32   -148069.11 
   31500    771.07426    336.63468      2204118          147  0.007193656    -150056.8   -148231.85 
   31600     771.5585   -104.01843      2204118          147  0.007193656    -150124.8    -148298.7 
   31700     765.4963   -155.45322      2204118          147  0.007193656   -150010.36   -148198.61 
   31800    773.89432    -24.96875      2204118          147  0.007193656   -149934.03    -148102.4 
   31900    792.81351    89.756765      2204118          147  0.007193656    -149920.5    -148044.1 
   32000    796.87507    75.150651      2204118          147  0.007193656   -149955.53   -148069.51 
   32100    801.50223    17.876822      2204118          147  0.007193656   -150088.68   -148191.71 
   32200     780.2594   -144.17418      2204118          147  0.007193656   -150055.76   -148209.07 
   32300    788.32567   -134.46029      2204118          147  0.007193656   -150017.01   -148151.23 
   32400    810.48934    116.95618      2204118          147  0.007193656   -150001.72   -148083.48 
   32500    822.30799    276.61488      2204118          147  0.007193656   -150035.26   -148089.05 
   32600    808.21002   -80.969827      2204118          147  0.007193656    -150121.2   -148208.36 
   32700    736.70758   -187.94067      2204118          147  0.007193656   -150030.92   -148287.31 
   32800    769.25037   -78.877712      2204118          147  0.007193656   -150028.71   -148208.08 
   32900    797.55091   -5.2852318      2204118          147  0.007193656   -150026.04   -148138.43 
   33000    828.47357    116.44461      2204118          147  0.007193656   -150072.56   -148111.76 
   33100    794.85898   -11.239254      2204118          147  0.007193656   -149970.41   -148089.17 
   33200    816.96015   -55.981457      2204118          147  0.007193656   -150110.19   -148176.64 
   33300    723.16226   -163.76125      2204118          147  0.007193656   -149961.54   -148249.99 
   33400    777.73368   -32.646165      2204118          147  0.007193656   -150021.74   -148181.02 
   33500    809.65072    103.69695      2204118          147  0.007193656   -150020.69   -148104.44 
   33600    800.06829    72.479893      2204118          147  0.007193656    -149931.8   -148038.23 
   33700     832.9946    20.923303      2204118          147  0.007193656    -150036.6    -148065.1 
   33800    757.30266   -108.83769      2204118          147  0.007193656   -149968.01   -148175.66 
   33900    784.92124    49.611562      2204118          147  0.007193656   -150064.16   -148206.44 
   34000    783.18777    164.68745      2204118          147  0.007193656   -150038.84   -148185.22 
   34100    816.24965   -66.411932      2204118          147  0.007193656   -150052.46   -148120.59 
   34200    795.29856   -31.003765      2204118          147  0.007193656    -149925.6   -148043.32 
   34300    852.31811   -100.77092      2204118          147  0.007193656   -150023.91   -148006.67 
   34400    804.14767   -28.178968      2204118          147  0.007193656   -149995.22   -148091.99 
   34500    783.39427    73.045775      2204118          147  0.007193656   -150051.22   -148197.12 
   34600    801.45961    74.843865      2204118          147  0.007193656   -150076.65   -148179.78 
   34700    799.90322   -47.416608      2204118          147  0.007193656   -149986.18      -148093 
   34800    809.02593    20.659096      2204118          147  0.007193656   -149897.64   -147982.86 
   34900    804.34236    -52.32202      2204118          147  0.007193656   -149882.27   -147978.58 
   35000    790.72242    128.91667      2204118          147  0.007193656   -150024.19   -148152.74 
   35100    778.33902   -138.19401      2204118          147  0.007193656   -150059.78   -148217.64 
   35200    758.99909   -153.89668      2204118          147  0.007193656   -149989.86   -148193.49 
   35300     783.3577    99.376228      2204118          147  0.007193656   -149935.76   -148081.74 
   35400    837.36736     221.9552      2204118          147  0.007193656   -149993.55    -148011.7 
   35500    824.18361    129.36686      2204118          147  0.007193656   -150012.47   -148061.83 
   35600    775.84272   -45.983719      2204118          147  0.007193656   -149960.93   -148124.69 
   35700    777.76671   -82.418766      2204118          147  0.007193656   -149971.36   -148130.57 
   35800    818.48723    50.620131      2204118          147  0.007193656   -150064.25   -148127.08 
   35900    821.52623    263.20365      2204118          147  0.007193656   -150063.84   -148119.48 
   36000    843.42845    92.290844      2204118          147  0.007193656   -150141.87   -148145.68 
   36100    791.13647   -206.62332      2204118          147  0.007193656   -150099.45   -148227.01 
   36200    780.70487    77.527938      2204118          147  0.007193656    -150043.4   -148195.66 
   36300    829.67884   -26.414924      2204118          147  0.007193656   -150026.74   -148063.09 
   36400    841.89819   -16.326931      2204118          147  0.007193656   -150001.78   -148009.21 
   36500    827.12575   -105.55248      2204118          147  0.007193656   -150009.32   -148051.71 
   36600    795.72511   -79.128978      2204118          147  0.007193656   -149969.24   -148085.95 
   36700    826.87345    20.642062      2204118          147  0.007193656   -150079.23   -148122.22 
   36800    765.80821    53.865396      2204118          147  0.007193656   -149967.03   -148154.55 
   36900    795.02155    146.84106      2204118          147  0.007193656   -150078.93    -148197.3 
   37000    791.48594    23.396273      2204118          147  0.007193656   -150135.02   -148261.76 
   37100    736.65387   -42.250598      2204118          147  0.007193656   -150031.73   -148288.24 
   37200    818.60676   -77.377969      2204118          147  0.007193656   -150097.33   -148159.89 
   37300    819.18572    187.24515      2204118          147  0.007193656   -150015.72    -148076.9 
   37400    842.84404    22.495858      2204118          147  0.007193656   -150091.26   -148096.45 
   37500    815.86787    58.184295      2204118          147  0.007193656   -150107.29   -148176.32 
   37600    755.88752    62.642252      2204118          147  0.007193656   -150068.74   -148279.74 
   37700    781.62745    56.097988      2204118          147  0.007193656   -150106.14   -148256.21 
   37800    770.73597    15.068571      2204118          147  0.007193656   -150030.33   -148206.18 
   37900    806.20278   -4.7562045      2204118          147  0.007193656   -150047.78   -148139.69 
   38000    800.83646    1.1665182      2204118          147  0.007193656    -149987.4   -148092.01 
   38100     807.7975    28.685641      2204118          147  0.007193656    -149942.1   -148030.24 
   38200    824.93535    102.59986      2204118          147  0.007193656   -149941.41   -147988.98 
   38300      797.855    146.96167      2204118          147  0.007193656      -149970   -148081.67 
   38400    795.32055    41.182302      2204118          147  0.007193656   -150057.93    -148175.6 
   38500    744.42698   -145.04225      2204118          147  0.007193656   -149978.25   -148216.37 
   38600    794.79028    50.482557      2204118          147  0.007193656   -150040.18    -148159.1 
   38700    824.27132    102.61382      2204118          147  0.007193656   -149996.24   -148045.38 
   38800    842.31353   -127.75765      2204118          147  0.007193656   -150029.72   -148036.17 
   38900    797.50018    -214.9034      2204118          147  0.007193656   -149979.22   -148091.73 
   39000    829.70385     -39.3695      2204118          147  0.007193656   -150087.82   -148124.11 
   39100    786.84272   -26.314156      2204118          147  0.007193656   -150026.22   -148163.95 
   39200    786.37699   -43.529813      2204118          147  0.007193656   -150041.95   -148180.78 
   39300    789.23673   -6.8594199      2204118          147  0.007193656   -150128.93   -148260.99 
   39400     749.1297    6.0572694      2204118          147  0.007193656   -150077.24   -148304.23 
   39500    793.52795   -103.71927      2204118          147  0.007193656   -150093.96   -148215.86 
   39600     829.8034   -120.61505      2204118          147  0.007193656   -150058.89   -148094.94 
   39700    780.18475   -46.499523      2204118          147  0.007193656    -149924.4   -148077.89 
   39800    798.22424    56.313121      2204118          147  0.007193656   -150016.61    -148127.4 
   39900     765.4372   -163.20626      2204118          147  0.007193656   -150042.47   -148230.86 
   40000     768.2034    1.1659818      2204118          147  0.007193656   -150103.21   -148285.05 
   40100    790.40876    30.519275      2204118          147  0.007193656   -150056.84   -148186.13 
   40200     822.9247    29.245961      2204118          147  0.007193656   -150061.65   -148113.98 
   40300    808.34843   -115.71312      2204118          147  0.007193656   -150035.04   -148121.87 
   40400    779.82359   -189.33551      2204118          147  0.007193656   -149937.78   -148092.13 
   40500    802.08675    56.577529      2204118          147  0.007193656   -149944.25    -148045.9 
   40600    778.25728    219.93811      2204118          147  0.007193656   -149946.37   -148104.42 
   40700    790.07011     102.2155      2204118          147  0.007193656   -150085.39   -148215.48 
   40800    769.16286    93.606177      2204118          147  0.007193656   -150040.14   -148219.72 
   40900    781.20085   -140.99111      2204118          147  0.007193656   -149990.42    -148141.5 
   41000    822.29749    216.57642      2204118          147  0.007193656   -150019.93   -148073.75 
   41100    785.22696    320.99182      2204118          147  0.007193656   -149956.49   -148098.04 
   41200    818.72411    210.12459      2204118          147  0.007193656   -150091.62   -148153.89 
   41300    787.72026   -67.274826      2204118          147  0.007193656   -150055.08   -148190.73 
   41400    781.41248   -103.02882      2204118          147  0.007193656    -150045.9   -148196.48 
   41500    805.95563   -101.31712      2204118          147  0.007193656   -150012.46   -148104.96 
   41600    793.13889     81.30668      2204118          147  0.007193656   -149900.98   -148023.81 
   41700    839.53007    22.685103      2204118          147  0.007193656   -150015.61   -148028.64 
   41800    763.99966   -228.39224      2204118          147  0.007193656   -149965.23   -148157.02 
   41900    761.80668    52.537428      2204118          147  0.007193656   -150016.58   -148213.56 
   42000    788.45463   -106.27954      2204118          147  0.007193656   -150038.32   -148172.24 
   42100    783.83088      132.171      2204118          147  0.007193656   -149960.84    -148105.7 
   42200    840.34334    128.26338      2204118          147  0.007193656   -150050.64   -148061.75 
   42300    811.02133   -87.900139      2204118          147  0.007193656   -150013.38   -148093.89 
   42400    795.45581   -127.75547      2204118          147  0.007193656   -150097.12   -148214.46 
   42500    796.35833     -109.689      2204118          147  0.007193656   -150148.28   -148263.49 
   42600    802.12451    3.2575488      2204118          147  0.007193656   -150079.14    -148180.7 
   42700    804.13368    87.480664      2204118          147  0.007193656   -149988.23   -148085.04 
   42800    809.40007    54.043404      2204118          147  0.007193656   -150001.42   -148085.76 
   42900    804.84536   -166.85366      2204118          147  0.007193656   -150026.58    -148121.7 
   43000    798.26809   -4.6745941      2204118          147  0.007193656   -150074.33   -148185.02 
   43100    771.31874    66.572377      2204118          147  0.007193656   -150132.46   -148306.93 
   43200    793.20101    115.37122      2204118          147  0.007193656   -150226.83   -148349.51 
   43300    764.67841    78.408936      2204118          147  0.007193656   -150052.28   -148242.47 
   43400    806.87407   -71.722143      2204118          147  0.007193656   -150059.14   -148149.46 
   43500    819.36191    5.0460582      2204118          147  0.007193656   -150041.26   -148102.03 
   43600    816.29998    97.914197      2204118          147  0.007193656   -150031.41   -148099.42 
   43700    798.64491   -2.8579898      2204118          147  0.007193656   -150071.86   -148181.66 
   43800    794.23662    129.31678      2204118          147  0.007193656   -150150.25   -148270.48 
   43900    766.19581   -49.365869      2204118          147  0.007193656   -150085.93   -148272.53 
   44000    772.01135   -8.0620305      2204118          147  0.007193656   -150039.66    -148212.5 
   44100    819.63933   -47.631821      2204118          147  0.007193656   -150098.75   -148158.86 
   44200    797.25741   -54.350265      2204118          147  0.007193656   -150028.46   -148141.54 
   44300     798.9182   -63.781925      2204118          147  0.007193656   -149986.72   -148095.87 
   44400    826.01921   -66.922577      2204118          147  0.007193656   -150124.83   -148169.84 
   44500    766.23691    55.732152      2204118          147  0.007193656    -150090.9    -148277.4 
   44600    827.30444     29.85666      2204118          147  0.007193656    -150206.8   -148248.77 
   44700     792.8199     215.3345      2204118          147  0.007193656   -149995.44   -148119.03 
   44800    805.56552   -138.18574      2204118          147  0.007193656   -149962.88    -148056.3 
   44900    838.31024    -56.88101      2204118          147  0.007193656   -150041.02   -148056.94 
   45000    795.33956   -129.14418      2204118          147  0.007193656   -150016.64   -148134.26 
   45100    806.47842     114.8691      2204118          147  0.007193656   -150078.38   -148169.64 
   45200    793.17695    71.061443      2204118          147  0.007193656   -150120.17   -148242.91 
   45300    771.46964    88.652395      2204118          147  0.007193656   -150193.91   -148368.03 
   45400    774.14482   -54.728111      2204118          147  0.007193656   -150251.62    -148419.4 
   45500    790.02033    -79.86586      2204118          147  0.007193656   -150125.87   -148256.08 
   45600    784.46391    64.892208      2204118          147  0.007193656   -150039.88   -148183.24 
   45700    795.68703     8.518953      2204118          147  0.007193656   -149980.97   -148097.77 
   45800    810.96039    112.82929      2204118          147  0.007193656   -149960.75    -148041.4 
   45900    791.21225    173.07371      2204118          147  0.007193656   -149962.82   -148090.21 
   46000    799.26477    19.227412      2204118          147  0.007193656   -150095.23   -148203.56 
   46100    814.40844   -36.505882      2204118          147  0.007193656   -150171.24   -148243.73 
   46200    790.38194    99.789542      2204118          147  0.007193656   -150080.37   -148209.73 
   46300    817.70392    34.582047      2204118          147  0.007193656   -150073.08   -148137.77 
   46400    790.35004   -25.861731      2204118          147  0.007193656   -149975.32   -148104.74 
   46500    769.43921   -71.986394      2204118          147  0.007193656   -149931.74   -148110.66 
   46600    799.32291   -48.711451      2204118          147  0.007193656   -150005.93   -148114.12 
   46700    788.98237    23.928835      2204118          147  0.007193656   -150030.66   -148163.32 
   46800    770.35222    100.21831      2204118          147  0.007193656   -150025.92   -148202.68 
   46900    786.27351   -148.82551      2204118          147  0.007193656   -150064.36   -148203.43 
   47000    803.71744   -152.69099      2204118          147  0.007193656   -150044.46   -148142.25 
   47100    781.33042   -46.245575      2204118          147  0.007193656   -149866.96   -148017.73 
   47200    824.73565    28.418492      2204118          147  0.007193656   -149921.41   -147969.45 
   47300    825.19823    116.97116      2204118          147  0.007193656   -149999.62   -148046.57 
   47400    787.87512    122.69165      2204118          147  0.007193656   -149981.97   -148117.26 
   47500    779.76417   -55.450396      2204118          147  0.007193656   -149973.88   -148128.37 
   47600    772.95477   -23.723408      2204118          147  0.007193656   -149949.87   -148120.47 
   47700    796.89319   -58.473165      2204118          147  0.007193656    -150070.1   -148184.05 
   47800     787.9619    93.752709      2204118          147  0.007193656    -150161.7   -148296.78 
   47900    794.91761    59.708112      2204118          147  0.007193656   -150133.42   -148252.04 
   48000    825.23462   -13.441406      2204118          147  0.007193656   -150108.46   -148155.33 
   48100    813.71649    8.3348625      2204118          147  0.007193656   -150042.53   -148116.66 
   48200    829.46448    82.005382      2204118          147  0.007193656   -150057.73   -148094.59 
   48300    810.89039     102.8432      2204118          147  0.007193656   -150067.27   -148148.09 
   48400    774.70301    128.80798      2204118          147  0.007193656      -150102   -148268.47 
   48500      772.312   -42.121646      2204118          147  0.007193656   -150113.26   -148285.38 
   48600    766.38551   -35.786835      2204118          147  0.007193656   -149985.71   -148171.86 
   48700    810.86168    76.008565      2204118          147  0.007193656   -150007.47   -148088.35 
   48800    832.12363    40.738922      2204118          147  0.007193656   -150045.36   -148075.92 
   48900    828.46168    112.88471      2204118          147  0.007193656   -150078.91   -148118.14 
   49000    795.78605   -104.27635      2204118          147  0.007193656      -150071   -148187.56 
   49100    772.76289     -30.9973      2204118          147  0.007193656   -150044.66   -148215.71 
   49200    790.24407    211.02335      2204118          147  0.007193656   -149985.58   -148115.26 
   49300     831.1735    59.085499      2204118          147  0.007193656   -149981.21   -148014.01 
   49400    848.57814   -52.861386      2204118          147  0.007193656   -150057.18    -148048.8 
   49500      827.688   -120.22054      2204118          147  0.007193656   -150063.17   -148104.23 
   49600    817.34515   -6.5554393      2204118          147  0.007193656   -150039.82   -148105.36 
   49700    829.40977   -1.8967849      2204118          147  0.007193656    -150056.6   -148093.59 
   49800     793.6034   -116.17405      2204118          147  0.007193656   -149974.77    -148096.5 
   49900     802.3711    102.08123      2204118          147  0.007193656   -150027.27   -148128.25 
   50000    785.23019       52.528      2204118          147  0.007193656   -150003.63   -148145.17 
   50100    795.80514   -80.873107      2204118          147  0.007193656   -150086.77   -148203.29 
   50200    800.87225   -78.650294      2204118          147  0.007193656   -150157.46   -148261.98 
   50300    778.44179   -51.261258      2204118          147  0.007193656   -150025.17   -148182.78 
   50400     808.9848    138.62619      2204118          147  0.007193656   -149981.85   -148067.18 
   50500    781.16959   -56.599165      2204118          147  0.007193656    -149902.9   -148054.06 
   50600    795.82615   -137.82387      2204118          147  0.007193656   -149962.98   -148079.44 
   50700    804.73586   -97.376365      2204118          147  0.007193656   -150096.06   -148191.44 
   50800    767.29014     85.00359      2204118          147  0.007193656   -150112.23   -148296.23 
   50900    776.98598    3.4352097      2204118          147  0.007193656   -150079.08   -148240.14 
   51000    775.51923    25.514302      2204118          147  0.007193656   -149983.07    -148147.6 
   51100    757.28378   -164.57407      2204118          147  0.007193656   -149898.96   -148106.65 
   51200    811.35673   -73.209895      2204118          147  0.007193656   -149979.17   -148058.88 
   51300     826.0364    191.04752      2204118          147  0.007193656   -150038.49   -148083.45 
   51400     800.3443    85.215437      2204118          147  0.007193656      -150137   -148242.77 
   51500    813.45919    33.914723      2204118          147  0.007193656   -150179.27      -148254 
   51600    798.09672   -5.9862403      2204118          147  0.007193656   -150062.37   -148173.47 
   51700    780.99564   -76.487061      2204118          147  0.007193656   -149940.89   -148092.46 
   51800    835.95688    4.7683591      2204118          147  0.007193656   -150051.53   -148073.01 
   51900    823.88534   -49.020539      2204118          147  0.007193656   -150065.32   -148115.38 
   52000    785.06034    28.095729      2204118          147  0.007193656   -150007.22   -148149.17 
   52100    791.71395   -27.959333      2204118          147  0.007193656   -149997.31   -148123.51 
   52200    811.38358   -64.968879      2204118          147  0.007193656   -150006.94   -148086.59 
   52300    786.45354   -141.95226      2204118          147  0.007193656   -149963.41   -148102.06 
   52400    784.47454      141.348      2204118          147  0.007193656   -149990.45   -148133.78 
   52500    791.87406   -22.295191      2204118          147  0.007193656   -150039.14   -148164.96 
   52600    780.60096    72.795021      2204118          147  0.007193656   -150047.28   -148199.79 
   52700    815.01778   -124.30053      2204118          147  0.007193656   -150166.42   -148237.46 
   52800    763.99959     19.47277      2204118          147  0.007193656   -149999.98   -148191.77 
   52900    802.01314    148.63678      2204118          147  0.007193656   -149959.47    -148061.3 
   53000    821.41427    -209.4116      2204118          147  0.007193656   -149975.45   -148031.36 
   53100    781.05999   -135.60242      2204118          147  0.007193656   -149924.23   -148075.64 
   53200    766.34192   -167.41496      2204118          147  0.007193656   -150002.44   -148188.69 
   53300    740.69012    15.078396      2204118          147  0.007193656   -150029.64    -148276.6 
   53400    709.42525    6.3943631      2204118          147  0.007193656   -150071.12   -148392.08 
   53500    759.74237    89.797705      2204118          147  0.007193656   -150160.67   -148362.54 
   53600    771.98936   -89.153467      2204118          147  0.007193656   -150045.65   -148218.53 
   53700    812.72693   -74.099373      2204118          147  0.007193656   -150056.65   -148133.12 
   53800    863.22724   -37.704822      2204118          147  0.007193656   -150097.89   -148054.84 
   53900    809.54243    172.84678      2204118          147  0.007193656   -149957.25   -148041.26 
   54000    789.31059     115.2192      2204118          147  0.007193656   -149987.08   -148118.97 
   54100    791.73536    49.393496      2204118          147  0.007193656   -150103.39   -148229.54 
   54200    775.33423   -128.25295      2204118          147  0.007193656   -150048.06   -148213.02 
   54300     800.1697   -115.11189      2204118          147  0.007193656   -150026.09   -148132.27 
   54400    773.94416    28.041855      2204118          147  0.007193656    -149934.8   -148103.06 
   54500     830.0095    7.9274051      2204118          147  0.007193656   -150078.33    -148113.9 
   54600    781.26354   -92.061279      2204118          147  0.007193656   -150000.66   -148151.59 
   54700    767.86667   -28.339756      2204118          147  0.007193656   -149945.51   -148128.15 
   54800    812.71208    -77.02505      2204118          147  0.007193656   -149941.57   -148018.07 
   54900    866.21558    93.927192      2204118          147  0.007193656   -150015.52   -147965.39 
   55000    796.98163   -15.724954      2204118          147  0.007193656   -149963.39   -148077.12 
   55100    767.52836   -97.793838      2204118          147  0.007193656   -149980.39   -148163.84 
   55200    751.63672    62.338847      2204118          147  0.007193656   -149975.47   -148196.52 
   55300     763.1419   -19.911791      2204118          147  0.007193656   -149970.69   -148164.51 
   55400    811.07845    10.379195      2204118          147  0.007193656   -149934.58   -148014.95 
   55500    849.46567    19.720519      2204118          147  0.007193656   -149982.46   -147971.97 
   55600    825.09449   -6.5823903      2204118          147  0.007193656   -149975.22   -148022.42 
   55700    839.09864    18.485776      2204118          147  0.007193656   -150072.55   -148086.61 
   55800    809.94539    -21.72369      2204118          147  0.007193656   -150043.67   -148126.72 
   55900    806.52257    89.013587      2204118          147  0.007193656   -150049.58   -148140.73 
   56000    812.89023   -145.04937      2204118          147  0.007193656   -150056.39   -148132.48 
   56100     808.4949    195.53976      2204118          147  0.007193656   -150058.91   -148145.39 
   56200     774.8999   -24.207775      2204118          147  0.007193656   -149976.18   -148142.18 
   56300    812.29814   -32.039246      2204118          147  0.007193656   -150017.26   -148094.74 
   56400    828.48758     78.50036      2204118          147  0.007193656   -150001.84   -148041.01 
   56500    843.34408    94.803391      2204118          147  0.007193656   -150087.13   -148091.13 
   56600     816.5246   -70.694945      2204118          147  0.007193656    -150142.3   -148209.78 
   56700    771.41062   -117.30625      2204118          147  0.007193656   -150065.75      -148240 
   56800    774.16633   -118.75951      2204118          147  0.007193656   -150002.98   -148170.71 
   56900    808.23598   -36.583329      2204118          147  0.007193656   -150031.64   -148118.74 
   57000    825.53626    10.957851      2204118          147  0.007193656   -150054.98   -148101.13 
   57100    803.85657    26.515201      2204118          147  0.007193656   -150032.37   -148129.84 
   57200    772.36093    40.873974      2204118          147  0.007193656    -149992.1   -148164.11 
   57300    793.34836     89.22667      2204118          147  0.007193656   -150137.77    -148260.1 
   57400     777.1874    99.164413      2204118          147  0.007193656   -150131.87   -148292.45 
   57500     800.6263    53.421988      2204118          147  0.007193656   -150076.33   -148181.44 
   57600    784.72756   -17.384419      2204118          147  0.007193656   -149948.04   -148090.78 
   57700    807.70169   -132.40961      2204118          147  0.007193656   -150002.48   -148090.84 
   57800    787.81874    95.729764      2204118          147  0.007193656   -149968.34   -148103.76 
   57900    772.64987    291.14148      2204118          147  0.007193656    -150023.9   -148195.22 
   58000    745.81753     31.26376      2204118          147  0.007193656   -150047.59   -148282.42 
   58100    745.00481   -48.726018      2204118          147  0.007193656   -150017.03   -148253.78 
   58200    818.33137   -124.17467      2204118          147  0.007193656      -150041   -148104.21 
   58300    807.56678    13.190148      2204118          147  0.007193656   -149984.33   -148073.01 
   58400    788.87126    78.391434      2204118          147  0.007193656   -149952.39   -148085.32 
   58500    804.82932    84.306172      2204118          147  0.007193656   -150069.63   -148164.79 
   58600    791.81067   -17.927649      2204118          147  0.007193656   -150114.04   -148240.02 
   58700    785.54936    5.0074826      2204118          147  0.007193656   -150094.38   -148235.17 
   58800    838.43751    28.578729      2204118          147  0.007193656   -150041.31   -148056.93 
   58900    799.33916   -21.337666      2204118          147  0.007193656   -149929.18   -148037.34 
   59000    786.77917    56.308628      2204118          147  0.007193656   -149978.55   -148116.43 
   59100    764.11438   -29.089035      2204118          147  0.007193656   -149957.82   -148149.35 
   59200    797.70073    -40.95277      2204118          147  0.007193656   -150070.16    -148182.2 
   59300    771.73894    89.857225      2204118          147  0.007193656   -149979.29   -148152.76 
   59400      767.476    109.78745      2204118          147  0.007193656   -149862.57   -148046.14 
   59500    843.92667   -74.765213      2204118          147  0.007193656   -149997.84   -148000.46 
   59600    875.69361      44.9406      2204118          147  0.007193656   -150139.28   -148066.72 
   59700    764.29427   -30.533704      2204118          147  0.007193656    -150004.7   -148195.79 
   59800    775.40488    159.72487      2204118          147  0.007193656   -150026.32   -148191.12 
   59900    777.83894    23.912519      2204118          147  0.007193656   -149989.61   -148148.65 
   60000    792.14265    182.39173      2204118          147  0.007193656   -149949.81   -148074.99 
   60100    813.24694   -184.76186      2204118          147  0.007193656    -149896.4   -147971.64 
   60200    869.65377   -13.302053      2204118          147  0.007193656   -149897.91   -147839.65 
   60300    839.22963    14.934721      2204118          147  0.007193656    -149913.4   -147927.14 
   60400    804.91617   -4.3891393      2204118          147  0.007193656   -149935.28   -148030.23 
   60500    772.67412   -23.673205      2204118          147  0.007193656   -149951.23   -148122.49 
   60600    814.27345   -55.504888      2204118          147  0.007193656   -150100.38   -148173.18 
   60700    785.67482     37.49689      2204118          147  0.007193656   -150023.74   -148164.23 
   60800    835.32757    47.433911      2204118          147  0.007193656   -150077.25   -148100.23 
   60900    851.37192     183.6306      2204118          147  0.007193656   -150001.43   -147986.44 
   61000    815.70707   -2.4235114      2204118          147  0.007193656   -149917.49    -147986.9 
   61100    793.43299   -73.304922      2204118          147  0.007193656   -150032.38   -148154.51 
   61200    754.22525    51.057325      2204118          147  0.007193656   -149958.85   -148173.78 
   61300     795.3123    40.213817      2204118          147  0.007193656   -150031.85   -148149.54 
   61400    808.22109    75.517516      2204118          147  0.007193656   -149989.28   -148076.42 
   61500    787.61594    -58.68389      2204118          147  0.007193656   -149856.06   -147991.96 
   61600    766.37261   -98.120965      2204118          147  0.007193656   -149813.21   -147999.39 
   61700     782.5939    1.7198355      2204118          147  0.007193656   -150006.88   -148154.67 
   61800    816.59674    23.417271      2204118          147  0.007193656   -150138.16   -148205.47 
   61900    771.47024   -57.753019      2204118          147  0.007193656    -149996.1   -148170.21 
   62000    776.13044    3.4897231      2204118          147  0.007193656   -149934.97   -148098.06 
   62100    859.33726   -149.04206      2204118          147  0.007193656   -150018.35    -147984.5 
   62200    848.56604    30.501735      2204118          147  0.007193656   -149920.95    -147912.6 
   62300    812.35524    -65.86565      2204118          147  0.007193656   -149963.74   -148041.09 
   62400    793.70731    121.18082      2204118          147  0.007193656   -150023.45   -148144.93 
   62500    813.05454    3.5546275      2204118          147  0.007193656   -150106.57   -148182.26 
   62600    794.50886   -6.1142174      2204118          147  0.007193656   -150028.88   -148148.47 
   62700    847.24042    -186.6111      2204118          147  0.007193656    -150045.8   -148040.58 
   62800    814.09143   -144.34408      2204118          147  0.007193656   -149963.43   -148036.67 
   62900    815.60479    -146.4576      2204118          147  0.007193656   -150025.98   -148095.64 
   63000    775.36372   -6.7463534      2204118          147  0.007193656   -150075.95   -148240.85 
   63100    788.80841    196.79452      2204118          147  0.007193656   -150083.46   -148216.54 
   63200    816.32528    26.642854      2204118          147  0.007193656   -150065.82   -148133.77 
   63300    843.90447   -29.219684      2204118          147  0.007193656   -150040.68   -148043.36 
   63400    842.95143     11.67054      2204118          147  0.007193656   -150005.69   -148010.63 
   63500    807.54426    138.10315      2204118          147  0.007193656   -150089.54   -148178.28 
   63600    724.06184     122.3061      2204118          147  0.007193656   -149923.49   -148209.81 
   63700     794.9486   -10.357722      2204118          147  0.007193656    -150025.2   -148143.75 
   63800    820.32283   -67.287089      2204118          147  0.007193656   -150001.09   -148059.58 
   63900    821.43081    -47.05055      2204118          147  0.007193656   -149998.73    -148054.6 
   64000    828.23574    52.369044      2204118          147  0.007193656   -150109.27   -148149.03 
   64100    757.55696    80.661986      2204118          147  0.007193656    -150031.1   -148238.14 
   64200    772.87773    -107.7365      2204118          147  0.007193656   -150041.27   -148212.06 
   64300    791.11622    94.531062      2204118          147  0.007193656   -150036.17   -148163.78 
   64400    782.48868    29.114052      2204118          147  0.007193656   -149976.84   -148124.87 
   64500    792.85762    6.3939592      2204118          147  0.007193656   -149956.02   -148079.52 
   64600     850.4433   -94.146316      2204118          147  0.007193656   -150123.99    -148111.2 
   64700     778.5491    4.3063061      2204118          147  0.007193656    -150102.8   -148260.16 
   64800    802.49379   -236.39647      2204118          147  0.007193656   -150137.13   -148237.82 
   64900    806.19892    148.44536      2204118          147  0.007193656   -150053.51   -148145.43 
   65000    823.91873     82.23376      2204118          147  0.007193656   -150034.06   -148084.04 
   65100    872.92789   -113.48906      2204118          147  0.007193656   -150074.39   -148008.38 
   65200    868.37794   -152.53732      2204118          147  0.007193656   -149942.44    -147887.2 
   65300    808.70047   -96.445316      2204118          147  0.007193656   -149837.85   -147923.84 
   65400    828.37531    -81.43979      2204118          147  0.007193656   -150023.82   -148063.25 
   65500     769.6558    115.04376      2204118          147  0.007193656   -149945.44   -148123.84 
   65600    751.69803    112.59104      2204118          147  0.007193656   -149966.48   -148187.38 
   65700    791.39266   -24.670174      2204118          147  0.007193656   -150087.05   -148214.02 
   65800    810.53971   -21.968674      2204118          147  0.007193656   -150082.36   -148164.01 
   65900    801.37362    137.96086      2204118          147  0.007193656   -149922.92   -148026.26 
   66000    829.97491    67.876453      2204118          147  0.007193656      -149961   -147996.64 
   66100    790.74147    3.4350997      2204118          147  0.007193656   -149939.11   -148067.62 
   66200    771.04147   -86.203685      2204118          147  0.007193656   -149993.28   -148168.41 
   66300    800.13773   -103.09267      2204118          147  0.007193656   -150057.36   -148163.62 
   66400     818.9168    50.865065      2204118          147  0.007193656   -150065.17   -148126.99 
   66500    804.71225     90.54281      2204118          147  0.007193656   -150005.36    -148100.8 
   66600    811.83115    29.584951      2204118          147  0.007193656   -149952.53   -148031.12 
   66700    812.35312   -209.90061      2204118          147  0.007193656   -149884.71   -147962.06 
   66800    830.42076   -42.157154      2204118          147  0.007193656   -149943.27   -147977.86 
   66900    777.92384    61.964884      2204118          147  0.007193656   -149972.79   -148131.63 
   67000    790.31727    106.07176      2204118          147  0.007193656    -150055.9    -148185.4 
   67100     796.9252     110.9874      2204118          147  0.007193656    -150089.2   -148203.07 
   67200    829.59763   -1.8388149      2204118          147  0.007193656   -150134.17   -148170.71 
   67300    804.95906   -113.93128      2204118          147  0.007193656   -149950.31   -148045.16 
   67400    813.36678    67.067273      2204118          147  0.007193656   -149889.23   -147964.19 
   67500    825.19601   0.92644265      2204118          147  0.007193656   -149968.87   -148015.83 
   67600    824.10795    60.625807      2204118          147  0.007193656   -150029.98   -148079.51 
   67700    773.60301   -76.068237      2204118          147  0.007193656   -149922.33    -148091.4 
   67800    822.51783   -16.160502      2204118          147  0.007193656   -150082.48   -148135.78 
   67900    794.28746   -157.61772      2204118          147  0.007193656    -150084.9   -148205.01 
   68000    800.75666    73.988548      2204118          147  0.007193656    -150159.6    -148264.4 
   68100    775.35841    69.503509      2204118          147  0.007193656   -150170.01   -148334.92 
   68200    808.43181   -4.6998079      2204118          147  0.007193656   -150159.71   -148246.34 
   68300      799.359   -50.395917      2204118          147  0.007193656   -150020.54   -148128.65 
   68400    811.92033   -42.943817      2204118          147  0.007193656   -150022.56   -148100.93 
   68500    776.66758    136.29145      2204118          147  0.007193656   -149967.98   -148129.79 
   68600    779.60524    25.986655      2204118          147  0.007193656   -150040.86   -148195.72 
   68700     765.6413    93.848947      2204118          147  0.007193656   -150116.52   -148304.43 
   68800    792.44235    -78.75501      2204118          147  0.007193656   -150132.06   -148256.54 
   68900    787.18844   -136.64065      2204118          147  0.007193656   -149993.96   -148130.88 
   69000     842.0564    8.8960676      2204118          147  0.007193656   -150094.92   -148101.97 
   69100    786.44312   -83.121564      2204118          147  0.007193656    -149998.3   -148136.98 
   69200    759.77483   -28.962351      2204118          147  0.007193656   -149989.81    -148191.6 
   69300    788.97143    -224.4549      2204118          147  0.007193656   -150050.44   -148183.13 
   69400    827.82541   -127.95757      2204118          147  0.007193656   -150041.67    -148082.4 
   69500    826.10502   -44.954228      2204118          147  0.007193656   -149982.68   -148027.48 
   69600    820.49547   -70.688178      2204118          147  0.007193656   -150021.99   -148080.07 
   69700    782.49463   -68.503868      2204118          147  0.007193656   -150053.05   -148201.07 
   69800    755.06392    17.905642      2204118          147  0.007193656   -149978.73   -148191.67 
   69900    819.21767   -44.376761      2204118          147  0.007193656   -150085.77   -148146.88 
   70000    789.42345    -1.621392      2204118          147  0.007193656   -149933.33   -148064.95 
   70100    812.60666     13.02979      2204118          147  0.007193656   -149871.33   -147948.08 
   70200    848.98375    138.30603      2204118          147  0.007193656   -149922.75   -147913.41 
   70300    801.58977   -95.482491      2204118          147  0.007193656   -149985.94   -148088.77 
   70400    794.75664     93.55546      2204118          147  0.007193656   -150034.11   -148153.11 
   70500    761.53943    19.348935      2204118          147  0.007193656   -149992.85   -148190.47 
   70600     818.1043    8.5675178      2204118          147  0.007193656   -150114.03   -148177.77 
   70700    799.34702  -0.51766498      2204118          147  0.007193656   -150006.98   -148115.12 
   70800    805.89025   -78.156061      2204118          147  0.007193656   -149906.08   -147998.73 
   70900    823.59108   -112.41082      2204118          147  0.007193656   -149907.42   -147958.17 
   71000    833.93251    20.008882      2204118          147  0.007193656   -150033.31   -148059.59 
   71100    783.22871    111.19988      2204118          147  0.007193656   -149982.32    -148128.6 
   71200    825.51496   -68.215686      2204118          147  0.007193656   -150102.72   -148148.92 
   71300    786.55147   -33.555807      2204118          147  0.007193656   -150005.88    -148144.3 
   71400    810.74785   -45.748178      2204118          147  0.007193656   -149975.47   -148056.63 
   71500    825.18305   -20.246102      2204118          147  0.007193656   -149991.86   -148038.84 
   71600    807.59941     53.33305      2204118          147  0.007193656   -150059.41   -148148.01 
   71700    819.10329    46.062479      2204118          147  0.007193656   -150167.12    -148228.5 
   71800    780.19167    114.83659      2204118          147  0.007193656   -150041.01   -148194.48 
   71900    792.35676    71.304949      2204118          147  0.007193656   -149977.63   -148102.31 
   72000    838.92414    -32.12598      2204118          147  0.007193656   -150013.54   -148028.01 
   72100    798.92605   -189.41251      2204118          147  0.007193656   -149972.43   -148081.56 
   72200    762.21777   -81.451676      2204118          147  0.007193656    -150066.4   -148262.41 
   72300    780.19368    -124.0979      2204118          147  0.007193656   -150111.67   -148265.13 
   72400    785.21159    71.429722      2204118          147  0.007193656   -150028.82   -148170.41 
   72500    838.00423   -31.278194      2204118          147  0.007193656   -150071.43   -148088.07 
   72600    802.25215    26.025703      2204118          147  0.007193656   -149984.42   -148085.68 
   72700    809.52322   -33.226798      2204118          147  0.007193656   -150069.68   -148153.73 
   72800    805.92408    134.37432      2204118          147  0.007193656   -150165.57   -148258.14 
   72900    774.44985    48.457999      2204118          147  0.007193656   -150067.07   -148234.13 
   73000    813.49279   -170.23221      2204118          147  0.007193656   -150094.23   -148168.89 
   73100    765.79722   -95.815614      2204118          147  0.007193656   -149951.31   -148138.85 
   73200    799.44227    140.69514      2204118          147  0.007193656   -150016.37   -148124.28 
   73300    787.74776    107.89977      2204118          147  0.007193656   -149992.55   -148128.13 
   73400    771.29535    9.0031413      2204118          147  0.007193656   -149963.16   -148137.68 
   73500    821.35336   -97.538573      2204118          147  0.007193656   -150015.64   -148071.69 
   73600     841.6984   -55.108354      2204118          147  0.007193656   -149959.86   -147967.76 
   73700    821.68675    27.107073      2204118          147  0.007193656   -149936.57   -147991.84 
   73800     763.6092    209.19787      2204118          147  0.007193656   -149914.51   -148107.23 
   73900    815.12647     57.43788      2204118          147  0.007193656   -150067.55   -148138.33 
   74000    799.42663    135.44436      2204118          147  0.007193656   -150011.57   -148119.51 
   74100    793.09544   -100.82052      2204118          147  0.007193656   -149968.28   -148091.21 
   74200    795.65366    109.29436      2204118          147  0.007193656   -149876.38   -147993.26 
   74300    819.11806    69.368244      2204118          147  0.007193656    -149884.3   -147945.64 
   74400    818.06317    85.727387      2204118          147  0.007193656   -150011.76    -148075.6 
   74500    791.56496   -214.87324      2204118          147  0.007193656   -150009.38   -148135.94 
   74600    784.00501   -39.960672      2204118          147  0.007193656   -149982.18   -148126.63 
   74700    809.00692    47.277122      2204118          147  0.007193656   -150009.43    -148094.7 
   74800    772.44665    39.948251      2204118          147  0.007193656   -149978.08   -148149.88 
   74900    782.96933   -102.12083      2204118          147  0.007193656   -150120.64   -148267.54 
   75000    798.80499   -157.83215      2204118          147  0.007193656   -150153.66   -148263.07 
[...]
  381700    792.68003   -39.610356      2204118          147  0.007193656   -150012.38   -148136.29 
  381800    835.89515   -41.286967      2204118          147  0.007193656   -150046.25   -148067.89 
  381900    819.31729     11.56494      2204118          147  0.007193656   -150130.81   -148191.68 
  382000     785.7081   -49.442268      2204118          147  0.007193656   -150162.21   -148302.62 
  382100    828.51386      201.811      2204118          147  0.007193656   -150259.48   -148298.58 
  382200    799.15426    116.91805      2204118          147  0.007193656   -150091.15   -148199.74 
  382300     783.1745    68.412523      2204118          147  0.007193656   -149972.92   -148119.34 
  382400    787.78508   -87.169246      2204118          147  0.007193656    -149983.6    -148119.1 
  382500    780.79503   -16.113275      2204118          147  0.007193656   -150080.66    -148232.7 
  382600     777.3654    51.257766      2204118          147  0.007193656   -150164.44    -148324.6 
  382700    783.22936    45.480973      2204118          147  0.007193656    -150141.1   -148287.38 
  382800    818.17822   -11.727233      2204118          147  0.007193656   -150129.27   -148192.84 
  382900    802.73911   -85.142669      2204118          147  0.007193656   -150053.23   -148153.34 
  383000    756.65659   -31.932113      2204118          147  0.007193656   -149935.52   -148144.69 
  383100     804.9896    123.82853      2204118          147  0.007193656   -150078.22      -148173 
  383200    770.86559    45.691931      2204118          147  0.007193656   -150171.96   -148347.51 
  383300    759.60679   -14.746903      2204118          147  0.007193656    -150161.5   -148363.69 
  383400    757.63844    5.5101524      2204118          147  0.007193656   -150037.88   -148244.73 
  383500    796.71557      229.168      2204118          147  0.007193656   -150052.44   -148166.81 
  383600    791.72871   -129.15065      2204118          147  0.007193656   -150029.65   -148155.82 
  383700    765.96252    107.90008      2204118          147  0.007193656   -150022.92   -148210.07 
  383800    769.72959   -162.04855      2204118          147  0.007193656   -150138.83   -148317.07 
  383900    727.99213   -60.208297      2204118          147  0.007193656    -150086.9   -148363.91 
  384000    801.68809     -25.9705      2204118          147  0.007193656   -150174.07   -148276.67 
  384100    844.70865    123.02195      2204118          147  0.007193656   -150214.48   -148215.26 
  384200    769.69511    -146.4253      2204118          147  0.007193656   -150011.35   -148189.66 
  384300    801.73936   -90.799243      2204118          147  0.007193656   -150043.38   -148145.86 
  384400    832.36028    139.71235      2204118          147  0.007193656    -150118.4    -148148.4 
  384500    807.26689    6.0270259      2204118          147  0.007193656   -150147.21   -148236.61 
  384600    762.50127    61.911925      2204118          147  0.007193656   -150141.96    -148337.3 
  384700    753.06845   -160.80095      2204118          147  0.007193656   -150085.88   -148303.55 
  384800    817.23542    17.569687      2204118          147  0.007193656   -150141.03   -148206.83 
  384900    841.10875    42.767327      2204118          147  0.007193656   -150168.84   -148178.14 
  385000    775.73648    64.544187      2204118          147  0.007193656   -150033.06   -148197.08 
  385100    763.34036   -10.729715      2204118          147  0.007193656   -150039.81   -148233.16 
  385200    793.97585   -161.65274      2204118          147  0.007193656   -150182.29   -148303.14 
  385300    717.55009    52.719429      2204118          147  0.007193656   -150078.03   -148379.76 
  385400    759.19843    167.12213      2204118          147  0.007193656   -150126.54    -148329.7 
  385500    807.36951    149.97094      2204118          147  0.007193656   -150091.36   -148180.51 
  385600    786.15659    39.417071      2204118          147  0.007193656   -149998.36   -148137.71 
  385700    820.61254   -13.470845      2204118          147  0.007193656   -150057.87   -148115.67 
  385800    850.19211     46.06301      2204118          147  0.007193656   -150218.54   -148206.34 
  385900    758.91184      266.105      2204118          147  0.007193656    -150120.3   -148324.14 
  386000    771.84824   -16.923444      2204118          147  0.007193656   -150106.89   -148280.11 
  386100    816.23643   -71.574461      2204118          147  0.007193656   -150144.44    -148212.6 
  386200    845.06952    4.6651774      2204118          147  0.007193656   -150151.21   -148151.13 
  386300    771.62851    -99.08536      2204118          147  0.007193656   -149974.44   -148148.18 
  386400    803.76018    17.887329      2204118          147  0.007193656   -150055.53   -148153.22 
  386500    816.23429   -14.340737      2204118          147  0.007193656   -150096.12   -148164.29 
  386600      819.549     116.7475      2204118          147  0.007193656   -150129.29   -148189.61 
  386700    775.48328    27.640885      2204118          147  0.007193656   -150032.74   -148197.35 
  386800    763.31555   -73.249849      2204118          147  0.007193656   -150092.07   -148285.48 
  386900    775.75573   -17.226208      2204118          147  0.007193656   -150199.47   -148363.44 
  387000    797.85908   -3.8648174      2204118          147  0.007193656   -150194.42   -148306.07 
  387100    802.83928    61.468961      2204118          147  0.007193656   -150078.47   -148178.34 
  387200    799.91212   -93.277255      2204118          147  0.007193656   -150049.18   -148155.98 
  387300    800.48744   -123.14919      2204118          147  0.007193656    -150077.7   -148183.14 
  387400    781.02252    135.62594      2204118          147  0.007193656   -150066.48   -148217.99 
  387500    787.30583     5.301684      2204118          147  0.007193656   -150188.08   -148324.71 
  387600    728.34497    79.637579      2204118          147  0.007193656   -150097.63   -148373.81 
  387700    801.68798   -43.163306      2204118          147  0.007193656   -150158.06   -148260.65 
  387800    784.06384    10.636064      2204118          147  0.007193656   -150042.27   -148186.58 
  387900    792.61311   -47.635124      2204118          147  0.007193656   -150039.25   -148163.32 
  388000    819.39885    13.327498      2204118          147  0.007193656   -150110.23   -148170.91 
  388100    796.75051    288.03948      2204118          147  0.007193656   -150130.71   -148244.99 
  388200    715.73667   -102.75753      2204118          147  0.007193656   -150022.59   -148328.62 
  388300    793.72133   -195.32146      2204118          147  0.007193656   -150115.79   -148237.24 
  388400    782.33234    115.06805      2204118          147  0.007193656   -149985.92   -148134.33 
  388500    843.40725    98.635681      2204118          147  0.007193656   -150140.97   -148144.83 
  388600    796.84582    188.59968      2204118          147  0.007193656   -150098.04   -148212.09 
  388700    764.08919   -145.01702      2204118          147  0.007193656   -150083.93   -148275.51 
  388800    771.53912   -55.948136      2204118          147  0.007193656   -150061.48   -148235.43 
  388900    793.39797   -12.021862      2204118          147  0.007193656    -149946.4   -148068.61 
  389000    808.55734    85.391985      2204118          147  0.007193656   -150003.82   -148090.16 
  389100    767.90449    159.37715      2204118          147  0.007193656   -149995.95    -148178.5 
  389200    774.88278    55.583916      2204118          147  0.007193656   -150078.93   -148244.96 
  389300     791.7132   -30.312706      2204118          147  0.007193656   -150115.61   -148241.81 
  389400    762.42705   -55.283523      2204118          147  0.007193656   -149958.66   -148154.17 
  389500    872.14123     106.9045      2204118          147  0.007193656   -150073.27   -148009.12 
  389600    836.72407   -20.371577      2204118          147  0.007193656    -150023.8   -148043.47 
  389700     800.9767   -11.838344      2204118          147  0.007193656   -150025.47   -148129.75 
  389800    809.27166   -66.904225      2204118          147  0.007193656   -150120.69   -148205.33 
  389900    792.61672   -194.76301      2204118          147  0.007193656   -150133.85   -148257.91 
  390000    825.19658    17.828605      2204118          147  0.007193656   -150221.93   -148268.89 
  390100    825.31869    113.67073      2204118          147  0.007193656   -150188.27   -148234.94 
  390200    803.68291   -30.664076      2204118          147  0.007193656   -150063.94   -148161.81 
  390300    846.28108   -152.13296      2204118          147  0.007193656   -150081.46   -148078.52 
  390400    800.96836   -9.5005838      2204118          147  0.007193656   -150002.45   -148106.75 
  390500    799.77649    108.60641      2204118          147  0.007193656   -150127.45   -148234.57 
  390600    782.32214    164.10433      2204118          147  0.007193656   -150108.82   -148257.25 
  390700    777.13777   -92.019117      2204118          147  0.007193656    -150111.2    -148271.9 
  390800    816.02842   -45.838175      2204118          147  0.007193656    -150134.9   -148203.56 
  390900    835.42765    46.755815      2204118          147  0.007193656   -150073.92   -148096.66 
  391000    789.41299    159.50758      2204118          147  0.007193656   -149934.52   -148066.17 
  391100    792.31835    3.4050598      2204118          147  0.007193656   -150116.98   -148241.75 
  391200    778.14252   -154.34822      2204118          147  0.007193656   -150131.53   -148289.85 
  391300    761.58008   -2.4136282      2204118          147  0.007193656   -150062.55   -148260.07 
  391400    814.45366     87.38871      2204118          147  0.007193656   -150079.61   -148151.99 
  391500    789.15061    360.75899      2204118          147  0.007193656   -150002.54   -148134.81 
  391600    824.05628   -66.765622      2204118          147  0.007193656    -150147.2   -148196.85 
  391700    784.49591     5.966796      2204118          147  0.007193656   -150193.24   -148336.53 
  391800    779.54439    102.83311      2204118          147  0.007193656   -150168.27   -148323.27 
  391900    749.19978   -16.887751      2204118          147  0.007193656   -150045.39   -148272.21 
  392000     800.9019    6.0972276      2204118          147  0.007193656   -150098.75   -148203.21 
  392100    822.47042    -111.2192      2204118          147  0.007193656   -150101.35   -148154.76 
  392200    783.21162   -30.128056      2204118          147  0.007193656   -150010.69   -148157.01 
  392300    815.58222   -18.989034      2204118          147  0.007193656   -150128.66   -148198.37 
  392400    802.05061    36.131372      2204118          147  0.007193656   -150260.08   -148361.81 
  392500    769.96014    29.865048      2204118          147  0.007193656   -150196.97   -148374.66 
  392600    771.96097   -47.625886      2204118          147  0.007193656   -150106.64   -148279.59 
  392700    789.70893   -21.455777      2204118          147  0.007193656   -150073.74   -148204.68 
  392800    812.94435   -12.480023      2204118          147  0.007193656   -150074.84   -148150.79 
  392900    821.02837    69.903872      2204118          147  0.007193656      -150059   -148115.82 
  393000    812.76651    101.90616      2204118          147  0.007193656   -150058.54   -148134.92 
  393100    779.97219   -45.720628      2204118          147  0.007193656   -150115.45   -148269.44 
  393200    825.34507   -70.024366      2204118          147  0.007193656   -150247.33   -148293.94 
  393300    790.03893   -62.724437      2204118          147  0.007193656   -150093.52   -148223.68 
  393400    826.89798   -8.8193553      2204118          147  0.007193656   -150098.97   -148141.89 
  393500     859.1776    31.376532      2204118          147  0.007193656   -150159.42   -148125.95 
  393600    792.89735   -123.24043      2204118          147  0.007193656   -150042.07   -148165.47 
  393700    787.06045   -122.06427      2204118          147  0.007193656   -150044.19   -148181.41 
  393800    800.19184  -0.78105697      2204118          147  0.007193656   -150063.87   -148170.01 
  393900    810.65975    155.82487      2204118          147  0.007193656   -150092.44    -148173.8 
  394000    728.34799    35.042645      2204118          147  0.007193656   -150020.26   -148296.43 
  394100    775.62667    132.95211      2204118          147  0.007193656   -150197.95   -148362.22 
  394200    802.98189   -108.93421      2204118          147  0.007193656   -150209.76   -148309.29 
  394300    764.86256   -64.853327      2204118          147  0.007193656   -150009.35    -148199.1 
  394400     800.5682    7.8962455      2204118          147  0.007193656    -150075.4   -148180.65 
  394500    798.38063    111.94879      2204118          147  0.007193656   -150080.89   -148191.31 
  394600    745.55631    32.951254      2204118          147  0.007193656    -150021.3   -148256.74 
  394700    774.48847   -68.255146      2204118          147  0.007193656   -150162.94   -148329.91 
  394800    763.53767    227.31996      2204118          147  0.007193656   -150111.31    -148304.2 
  394900    792.65542   -70.540323      2204118          147  0.007193656    -150039.6   -148163.57 
  395000    826.90298   -85.244646      2204118          147  0.007193656   -150076.93   -148119.85 
  395100    803.62666   -61.310734      2204118          147  0.007193656   -150048.23   -148146.23 
  395200    775.39974   -39.190179      2204118          147  0.007193656   -150066.25   -148231.06 
  395300    768.54854  -0.28313986      2204118          147  0.007193656   -150155.27    -148336.3 
  395400    749.40639    178.25485      2204118          147  0.007193656   -150092.21   -148318.54 
  395500    759.89296    150.16895      2204118          147  0.007193656   -150068.09    -148269.6 
  395600    762.12761   -183.35359      2204118          147  0.007193656   -150019.42   -148215.65 
  395700    809.90448   -271.74561      2204118          147  0.007193656   -150074.19   -148157.34 
  395800    807.63206    58.092888      2204118          147  0.007193656   -150047.08   -148135.61 
  395900    764.20936    38.637481      2204118          147  0.007193656   -150029.45   -148220.75 
  396000    752.23745   -120.38275      2204118          147  0.007193656   -150123.74   -148343.37 
  396100    757.74033    231.25665      2204118          147  0.007193656    -150116.7    -148323.3 
  396200    777.11399   -87.961612      2204118          147  0.007193656   -150096.72   -148257.48 
  396300    790.99116   -4.4219223      2204118          147  0.007193656    -150064.7   -148192.62 
  396400    818.76949    77.854012      2204118          147  0.007193656   -150109.33   -148171.49 
  396500    795.53027     -8.27688      2204118          147  0.007193656   -150064.54   -148181.71 
  396600    801.45737   -56.685298      2204118          147  0.007193656   -150088.49   -148191.63 
  396700    811.95345    61.358213      2204118          147  0.007193656   -150123.79   -148202.09 
  396800     821.6251   -162.71258      2204118          147  0.007193656   -150165.95   -148221.36 
  396900    781.54141   -164.37962      2204118          147  0.007193656   -150135.52    -148285.8 
  397000     789.6133    21.497987      2204118          147  0.007193656   -150178.58   -148309.76 
  397100    788.70536     86.39864      2204118          147  0.007193656   -150093.03   -148226.35 
  397200    819.63828    125.46555      2204118          147  0.007193656   -150066.87   -148126.98 
  397300    818.97627   -22.196873      2204118          147  0.007193656   -150058.47   -148120.14 
  397400    776.41465   -228.68044      2204118          147  0.007193656   -150031.06   -148193.47 
  397500    810.74363    177.21602      2204118          147  0.007193656   -150115.96   -148197.12 
  397600    788.21224    216.49886      2204118          147  0.007193656   -150079.18   -148213.67 
  397700    838.55502     188.3727      2204118          147  0.007193656   -150202.02   -148217.35 
  397800    758.36531   -193.80867      2204118          147  0.007193656   -150064.14   -148269.27 
  397900    779.67724    18.517711      2204118          147  0.007193656   -150158.15   -148312.84 
  398000    777.68433    35.621766      2204118          147  0.007193656   -150104.59      -148264 
  398100    811.31266    51.940349      2204118          147  0.007193656   -150060.77   -148140.59 
  398200    793.48585    7.1320744      2204118          147  0.007193656   -149993.67   -148115.68 
  398300    844.39563   -115.90558      2204118          147  0.007193656   -150168.17   -148169.68 
  398400    787.69143   -151.89532      2204118          147  0.007193656    -150179.8   -148315.52 
  398500    786.86835    6.5636222      2204118          147  0.007193656   -150174.79   -148312.45 
  398600    736.44916     266.0471      2204118          147  0.007193656   -149990.68   -148247.68 
  398700    836.42591    56.514277      2204118          147  0.007193656   -150134.38   -148154.76 
  398800    792.94574    -164.1489      2204118          147  0.007193656   -150030.58   -148153.87 
  398900      772.843   -86.457482      2204118          147  0.007193656   -149993.82   -148164.69 
  399000    799.80845   -52.884619      2204118          147  0.007193656   -150099.86    -148206.9 
  399100    781.72458   -12.071531      2204118          147  0.007193656   -150226.22   -148376.07 
  399200    791.62879   -111.93755      2204118          147  0.007193656   -150276.19   -148402.59 
  399300    796.92483   -92.418642      2204118          147  0.007193656   -150174.37   -148288.24 
  399400    796.84069   -72.292262      2204118          147  0.007193656   -150092.72   -148206.79 
  399500    826.81266   -69.037591      2204118          147  0.007193656   -150120.33   -148163.46 
  399600    805.96843   -71.082016      2204118          147  0.007193656   -150105.26   -148197.73 
  399700    802.42071    67.149163      2204118          147  0.007193656   -150217.23   -148318.09 
  399800    757.26867     120.9039      2204118          147  0.007193656   -150165.92   -148373.64 
  399900    769.15139   -6.3103403      2204118          147  0.007193656    -150115.5    -148295.1 
  400000    785.07101   -37.125477      2204118          147  0.007193656   -150069.28    -148211.2 
  400057      835.239    1.9517266      2204118          147  0.007193656   -150183.78   -148206.97 
Loop time of 4700.85 on 16 procs for 400000 steps with 795 atoms

Performance: 1.838 ns/day, 13.058 hours/ns, 85.091 timesteps/s
99.8% CPU use with 16 MPI tasks x no OpenMP threads

MPI task timing breakdown:
Section |  min time  |  avg time  |  max time  |%varavg| %total
---------------------------------------------------------------
Pair    | 0.1795     | 1130       | 3707.5     |4097.9 | 24.04
Neigh   | 0.020151   | 2.7858     | 5.9722     | 165.8 |  0.06
Comm    | 8.1198     | 651.68     | 2545.6     |3654.3 | 13.86
Output  | 96.148     | 96.936     | 108.58     |  30.5 |  2.06
Modify  | 866.7      | 2818.8     | 4595.8     |3360.4 | 59.96
Other   |            | 0.7168     |            |       |  0.02

Nlocal:        49.6875 ave         209 max           0 min
Histogram: 12 0 0 0 0 0 0 0 0 4
Nghost:        159.938 ave         428 max           0 min
Histogram: 8 0 0 0 0 4 0 0 0 4
Neighs:        3060.56 ave       12906 max           0 min
Histogram: 12 0 0 0 0 0 0 0 1 3

Total # of neighbors = 48969
Ave neighs/atom = 61.596226
Neighbor list builds = 11181
Dangerous builds = 0

write_data graphene_single_layer_ReaxFF_750_C_temp_800K.data
System init for write_data ...
Total wall time: 1:18:24
