
# System definition
read_data graphene_single_layer_x-45_y-45_795_C.data
Reading data file ...
  orthogonal box = (-51.000000 -51.000000 -51.000000) to (96.000000 96.000000 51.000000)
  2 by 4 by 2 MPI processor grid
  reading atoms ...
  795 atoms
  read_data CPU = 0.020 seconds

pair_style reax/c NULL
pair_coeff * * ffield.reax.cho C
Reading potential file ffield.reax.cho with DATE: 2011-02-18
fix qeq_reax all qeq/reax 1 0.0 10.0 1.0e-6 reax/c


# Minimization
timestep 0.25
min_style cg
thermo 100
thermo_style custom step temp press vol lx density pe etotal
dump 2 all custom 1000 graphene_single_layer_ReaxFF_795_C_temp_1200K.lammpstrj id type x y z
minimize 1.0e-6 1.0e-6 100 1000

CITE-CITE-CITE-CITE-CITE-CITE-CITE-CITE-CITE-CITE-CITE-CITE-CITE

Your simulation uses code contributions which should be cited:

- pair reaxff command:

@Article{Aktulga12,
 author = {H. M. Aktulga, J. C. Fogarty, S. A. Pandit, A. Y. Grama},
 title = {Parallel reactive molecular dynamics: Numerical methods and algorithmic techniques},
 journal = {Parallel Computing},
 year =    2012,
 volume =  38,
 pages =   {245--259}
}

- fix qeq/reaxff command:

@Article{Aktulga12,
 author = {H. M. Aktulga, J. C. Fogarty, S. A. Pandit, A. Y. Grama},
 title = {Parallel reactive molecular dynamics: Numerical methods and algorithmic techniques},
 journal = {Parallel Computing},
 year =    2012,
 volume =  38,
 pages =   {245--259}
}

CITE-CITE-CITE-CITE-CITE-CITE-CITE-CITE-CITE-CITE-CITE-CITE-CITE

WARNING: Using 'neigh_modify every 1 delay 0 check yes' setting during minimization (../min.cpp:188)
Neighbor list info ...
  update every 1 steps, delay 0 steps, check yes
  max neighbors/atom: 10000, page size: 100000
  master list distance cutoff = 10.4
  ghost atom cutoff = 10.4
  binsize = 5.2, bins = 29 29 20
  2 neighbor lists, perpetual/occasional/extra = 2 0 0
  (1) pair reax/c, perpetual
      attributes: half, newton off, ghost
      pair build: half/bin/newtoff/ghost
      stencil: full/ghost/bin/3d
      bin: standard
  (2) fix qeq/reax, perpetual, copy from (1)
      attributes: half, newton off, ghost
      pair build: copy
      stencil: none
      bin: none
Per MPI rank memory allocation (min/avg/max) = 7.965 | 10.90 | 14.56 Mbytes
Step Temp Press Volume Lx Density PotEng TotEng 
       0            0    4589.6155      2204118          147  0.007193656   -142445.78   -142445.78 
      57            0    1294.9092      2204118          147  0.007193656   -150031.46   -150031.46 
Loop time of 3.91792 on 16 procs for 57 steps with 795 atoms

99.9% CPU use with 16 MPI tasks x no OpenMP threads

Minimization stats:
  Stopping criterion = energy tolerance
  Energy initial, next-to-last, final = 
     -142445.777810412  -150031.434465826  -150031.460524184
  Force two-norm initial, final = 2416.1570 1787.6736
  Force max component initial, final = 272.51119 337.29483
  Final line search alpha, max atom move = 0.00017977701 0.060637855
  Iterations, force evaluations = 57 237

MPI task timing breakdown:
Section |  min time  |  avg time  |  max time  |%varavg| %total
---------------------------------------------------------------
Pair    | 0.00025121 | 0.75503    | 2.7531     | 109.5 | 19.27
Neigh   | 3.2762e-05 | 0.00159    | 0.0034454  |   3.9 |  0.04
Comm    | 0.00042009 | 0.51394    | 2.0292     |  95.6 | 13.12
Output  | 0          | 0          | 0          |   0.0 |  0.00
Modify  | 1.1345     | 1.1379     | 1.1406     |   0.2 | 29.04
Other   |            | 1.509      |            |       | 38.53

Nlocal:        49.6875 ave         209 max           0 min
Histogram: 12 0 0 0 0 0 0 0 0 4
Nghost:        162.812 ave         432 max           0 min
Histogram: 8 0 0 0 0 4 0 0 0 4
Neighs:        3113.44 ave       13116 max           0 min
Histogram: 12 0 0 0 0 0 0 0 0 4

Total # of neighbors = 49815
Ave neighs/atom = 62.660377
Neighbor list builds = 6
Dangerous builds = 0

fix 1 all nvt temp 1200.0 1200.0 $(100.0*dt)
fix 1 all nvt temp 1200.0 1200.0 25
run 400000
Per MPI rank memory allocation (min/avg/max) = 6.841 | 9.777 | 13.44 Mbytes
Step Temp Press Volume Lx Density PotEng TotEng 
      57            0    1294.9092      2204118          147  0.007193656   -150031.46   -150031.46 
     100    121.50085    1524.2223      2204118          147  0.007193656   -150304.18   -150016.62 
     200    295.21666   -717.35254      2204118          147  0.007193656   -150481.51    -149782.8 
     300    349.63725   -848.21829      2204118          147  0.007193656   -150326.16   -149498.65 
     400    462.73594   -844.12573      2204118          147  0.007193656   -150167.37   -149072.19 
     500    688.45046    551.89453      2204118          147  0.007193656   -150096.75   -148467.35 
     600    603.18553    988.15709      2204118          147  0.007193656    -149286.6      -147859 
     700    954.46384   -247.93107      2204118          147  0.007193656   -149319.31   -147060.32 
     800    932.99721   -866.16908      2204118          147  0.007193656   -148513.49    -146305.3 
     900    1056.0101   -813.50403      2204118          147  0.007193656    -148032.8   -145533.47 
    1000    1514.6479   -436.63163      2204118          147  0.007193656   -148439.07   -144854.25 
    1100    1244.2783    613.24368      2204118          147  0.007193656   -148468.39   -145523.48 
    1200    902.32753    1577.5154      2204118          147  0.007193656   -148010.19    -145874.6 
    1300    1308.2652   -78.171334      2204118          147  0.007193656   -148555.38   -145459.02 
    1400    1219.5533   -606.44267      2204118          147  0.007193656   -148265.89    -145379.5 
    1500    1168.3614   -556.09735      2204118          147  0.007193656   -148400.93    -145635.7 
    1600     1252.063   -352.10548      2204118          147  0.007193656   -148756.39   -145793.05 
    1700    1097.5089    738.08299      2204118          147  0.007193656    -148712.2   -146114.65 
    1800      1063.11    1081.6215      2204118          147  0.007193656   -148610.81   -146094.68 
    1900    1251.1388   -501.82508      2204118          147  0.007193656   -148589.31   -145628.16 
    2000    1200.0655   -736.52478      2204118          147  0.007193656   -148185.17   -145344.89 
    2100    1205.0875   -783.59668      2204118          147  0.007193656   -148051.37   -145199.21 
    2200    1362.0289   -396.40212      2204118          147  0.007193656   -148383.81   -145160.21 
    2300     1278.514    626.67752      2204118          147  0.007193656    -148796.5   -145770.56 
    2400     986.1933    1591.3541      2204118          147  0.007193656   -148456.87   -146122.78 
    2500    1248.5594    162.47855      2204118          147  0.007193656   -148826.36   -145871.31 
    2600    1212.7508   -444.85734      2204118          147  0.007193656   -148643.76   -145773.47 
    2700     1184.301   -693.11718      2204118          147  0.007193656   -148576.83   -145773.87 
    2800    1188.6424   -435.28507      2204118          147  0.007193656   -148465.37   -145652.14 
    2900    1262.9125    -55.15323      2204118          147  0.007193656    -148623.1   -145634.09 
    3000     1150.335    984.02058      2204118          147  0.007193656   -148530.66   -145808.09 
    3100    1244.2082       33.201      2204118          147  0.007193656   -148854.86   -145910.11 
    3200     1200.637   -376.64814      2204118          147  0.007193656   -149003.22    -146161.6 
    3300    1145.6705    -308.7794      2204118          147  0.007193656    -149040.7   -146329.17 
    3400    1158.2702   -116.36023      2204118          147  0.007193656   -149066.87   -146325.52 
    3500    1132.8325    583.68585      2204118          147  0.007193656   -148793.62   -146112.48 
    3600      1218.34    671.40673      2204118          147  0.007193656   -148607.65   -145724.13 
    3700    1304.9249    -154.3379      2204118          147  0.007193656   -148558.06   -145469.61 
    3800    1267.1137   -415.67666      2204118          147  0.007193656   -148744.68   -145745.72 
    3900    1113.5419   -454.99443      2204118          147  0.007193656   -148789.25   -146153.76 
    4000    1137.5223   -149.47736      2204118          147  0.007193656   -149024.87   -146332.62 
    4100    1139.8675     506.9612      2204118          147  0.007193656   -148959.12   -146261.32 
    4200    1231.8628    290.54185      2204118          147  0.007193656   -148857.31   -145941.78 
    4300    1225.5707   -345.54475      2204118          147  0.007193656   -148582.73   -145682.09 
    4400    1277.5435   -480.46729      2204118          147  0.007193656   -148741.62   -145717.97 
    4500    1168.4932   -374.47292      2204118          147  0.007193656    -148733.6   -145968.05 
    4600    1153.8557    283.70223      2204118          147  0.007193656   -148941.09   -146210.19 
    4700    1096.2593    866.22892      2204118          147  0.007193656    -148851.9   -146257.32 
    4800    1183.6935    656.80686      2204118          147  0.007193656   -148785.35   -145983.83 
    4900    1269.4764   -133.94729      2204118          147  0.007193656   -148788.92   -145784.37 
    5000    1225.9499   -449.22246      2204118          147  0.007193656   -148755.59   -145854.05 
    5100    1216.3414   -411.25936      2204118          147  0.007193656   -148889.35   -146010.56 
    5200    1189.6598   -194.83685      2204118          147  0.007193656   -148934.43   -146118.79 
    5300    1177.0806    406.61029      2204118          147  0.007193656   -148859.45   -146073.58 
    5400    1150.7981    380.39641      2204118          147  0.007193656   -148679.08   -145955.41 
    5500    1263.0584   -134.68806      2204118          147  0.007193656   -148761.17   -145771.81 
    5600    1287.7567    -245.0416      2204118          147  0.007193656   -148882.24   -145834.42 
    5700    1189.0133   -54.274158      2204118          147  0.007193656   -148918.25   -146104.13 
    5800    1157.7564    93.882821      2204118          147  0.007193656   -148976.02   -146235.88 
    5900    1167.2681    410.16528      2204118          147  0.007193656   -148885.12   -146122.48 
    6000    1200.0512    29.646374      2204118          147  0.007193656   -148708.01   -145867.77 
    6100     1232.025    92.560163      2204118          147  0.007193656   -148703.14   -145787.23 
    6200    1271.4993   -91.980951      2204118          147  0.007193656   -148990.11   -145980.78 
    6300    1129.0244   -146.25636      2204118          147  0.007193656   -148870.33    -146198.2 
    6400    1078.6923    65.613754      2204118          147  0.007193656   -148744.76   -146191.75 
    6500    1216.0326   -18.216545      2204118          147  0.007193656   -148865.29   -145987.23 
    6600    1210.5917     -153.735      2204118          147  0.007193656   -148703.34   -145838.15 
    6700    1255.0863   -154.45791      2204118          147  0.007193656   -148738.04   -145767.55 
    6800     1218.558   -9.7160238      2204118          147  0.007193656   -148810.65   -145926.61 
    6900    1170.1543    227.08532      2204118          147  0.007193656   -148875.02   -146105.55 
    7000    1134.6888    347.14217      2204118          147  0.007193656   -148830.74    -146145.2 
    7100    1157.1576     343.2513      2204118          147  0.007193656   -148765.33   -146026.61 
    7200    1301.9327    36.646621      2204118          147  0.007193656   -148973.68   -145892.32 
    7300    1145.3094   -44.794966      2204118          147  0.007193656   -148668.16   -145957.48 
    7400    1214.2254   -288.01882      2204118          147  0.007193656   -148930.82   -146057.04 
    7500    1147.2995   -282.31537      2204118          147  0.007193656   -148815.06   -146099.67 
    7600    1210.0298   -56.975499      2204118          147  0.007193656   -148879.26   -146015.41 
    7700    1208.4675    196.89441      2204118          147  0.007193656   -148819.56   -145959.41 
    7800    1171.5555    15.190355      2204118          147  0.007193656   -148677.49   -145904.69 
    7900    1202.3521    49.596486      2204118          147  0.007193656   -148768.74   -145923.06 
    8000    1207.7872    -42.53844      2204118          147  0.007193656    -149014.2   -146155.66 
    8100    1127.9507    53.235436      2204118          147  0.007193656   -148895.75   -146226.16 
    8200    1167.7573    267.85543      2204118          147  0.007193656    -148850.4   -146086.59 
    8300    1188.5057   -22.888775      2204118          147  0.007193656    -148747.9   -145934.99 
    8400    1213.2521    165.60835      2204118          147  0.007193656   -148784.05   -145912.57 
    8500    1201.0353   -57.697233      2204118          147  0.007193656   -148805.91   -145963.34 
    8600    1199.4227   -77.897953      2204118          147  0.007193656   -148947.28   -146108.53 
    8700    1127.8612    53.621907      2204118          147  0.007193656    -148831.8   -146162.42 
    8800    1172.9455   -26.211787      2204118          147  0.007193656   -148843.26   -146067.18 
    8900    1188.1402   -48.319284      2204118          147  0.007193656   -148786.31   -145974.27 
    9000    1184.9679   -181.77277      2204118          147  0.007193656   -148697.69   -145893.15 
    9100     1203.719   -137.38311      2204118          147  0.007193656   -148680.35   -145831.43 
    9200     1207.896    113.91884      2204118          147  0.007193656   -148844.57   -145985.77 
    9300    1152.7556    260.50105      2204118          147  0.007193656   -148885.58   -146157.28 
    9400    1182.1827    274.71078      2204118          147  0.007193656   -148870.12   -146072.17 
    9500    1194.2219    188.15873      2204118          147  0.007193656   -148777.71   -145951.27 
    9600    1213.6266    18.061064      2204118          147  0.007193656    -148788.7   -145916.33 
    9700    1191.2007   -168.10732      2204118          147  0.007193656   -148804.67   -145985.38 
    9800    1153.5566   -80.025883      2204118          147  0.007193656   -148904.85   -146174.65 
    9900    1174.0614   -22.450803      2204118          147  0.007193656   -148952.32    -146173.6 
   10000    1186.1707    101.97978      2204118          147  0.007193656   -148825.68    -146018.3 
   10100     1198.588    14.191967      2204118          147  0.007193656   -148763.58    -145926.8 
   10200    1225.9827    7.5901015      2204118          147  0.007193656   -148820.53   -145918.92 
   10300    1263.7952   -112.22849      2204118          147  0.007193656   -148987.76   -145996.66 
   10400    1144.6926    167.89086      2204118          147  0.007193656   -148894.01    -146184.8 
   10500    1175.1387    154.81002      2204118          147  0.007193656   -148961.41   -146180.13 
   10600    1150.1571    151.54434      2204118          147  0.007193656   -148757.97   -146035.82 
   10700     1315.616       157.95      2204118          147  0.007193656   -149019.06   -145905.31 
   10800    1249.5416   -75.211987      2204118          147  0.007193656   -148870.89   -145913.53 
   10900     1212.882   -25.416557      2204118          147  0.007193656   -148907.42   -146036.81 
   11000    1128.4341    96.529415      2204118          147  0.007193656   -148875.77   -146205.03 
   11100    1114.1014   -99.618604      2204118          147  0.007193656   -148810.21    -146173.4 
   11200    1209.9468   -76.429172      2204118          147  0.007193656    -148906.5   -146042.84 
   11300    1154.9686   -246.63773      2204118          147  0.007193656   -148704.45   -145970.92 
   11400     1183.542   -319.17495      2204118          147  0.007193656   -148685.73   -145884.57 
   11500    1223.4299   -153.79472      2204118          147  0.007193656   -148809.82   -145914.25 
   11600    1159.4956    244.64333      2204118          147  0.007193656   -148909.35    -146165.1 
   11700    1160.3689    149.28021      2204118          147  0.007193656   -148911.76   -146165.44 
   11800    1185.5934    103.00154      2204118          147  0.007193656   -148818.63   -146012.61 
   11900    1245.8635    40.745115      2204118          147  0.007193656   -148856.43   -145907.77 
   12000    1212.7373   -116.07726      2204118          147  0.007193656   -148739.63   -145869.37 
   12100    1180.2465   -70.454558      2204118          147  0.007193656   -148772.32   -145978.95 
   12200    1127.3711    117.09936      2204118          147  0.007193656   -148804.85   -146136.63 
   12300    1175.5803    2.6171631      2204118          147  0.007193656   -148886.19   -146103.87 
   12400    1190.0595    128.16454      2204118          147  0.007193656   -148794.16   -145977.57 
   12500    1257.2067   -187.25428      2204118          147  0.007193656   -148883.23   -145907.71 
   12600    1187.4301   -134.00083      2204118          147  0.007193656   -148711.59   -145901.22 
   12700     1284.771   -186.81349      2204118          147  0.007193656   -148980.33   -145939.58 
   12800    1204.7668   -66.483518      2204118          147  0.007193656   -148926.85   -146075.45 
   12900    1149.1982     59.55432      2204118          147  0.007193656   -148991.59   -146271.71 
   13000    1111.8561    43.333722      2204118          147  0.007193656   -148861.63   -146230.13 
   13100    1191.1704    -36.58236      2204118          147  0.007193656   -148912.51    -146093.3 
   13200    1225.4201    5.8494689      2204118          147  0.007193656   -148941.44   -146041.16 
   13300    1203.3162    48.647516      2204118          147  0.007193656   -148842.61   -145994.65 
   13400    1159.6361    117.50334      2204118          147  0.007193656   -148713.63   -145969.05 
   13500    1120.2603   -175.18688      2204118          147  0.007193656   -148689.02   -146037.63 
   13600    1193.4148    -173.0336      2204118          147  0.007193656   -148921.43    -146096.9 
   13700    1208.5286   -190.17558      2204118          147  0.007193656   -148895.96   -146035.66 
   13800    1245.2654   -19.652448      2204118          147  0.007193656   -148804.35    -145857.1 
   13900    1302.1994    231.80772      2204118          147  0.007193656   -148963.02   -145881.03 
   14000    1226.0556    84.862474      2204118          147  0.007193656   -148909.68    -146007.9 
   14100    1148.5605     88.69671      2204118          147  0.007193656   -148754.58   -146036.21 
   14200    1200.1144    112.21149      2204118          147  0.007193656   -148911.38   -146070.99 
   14300    1262.7885   -133.04984      2204118          147  0.007193656   -148997.02    -146008.3 
   14400    1216.2787    44.251901      2204118          147  0.007193656   -148762.51   -145883.86 
   14500    1236.6837   -38.922936      2204118          147  0.007193656   -148813.53   -145886.59 
   14600    1215.7389    80.581228      2204118          147  0.007193656   -148979.11   -146101.74 
   14700    1198.7132   -105.07905      2204118          147  0.007193656   -148994.84   -146157.77 
   14800    1163.2248   -21.826233      2204118          147  0.007193656   -148817.89   -146064.81 
   14900    1196.9353   -216.11146      2204118          147  0.007193656   -148752.69   -145919.83 
   15000    1231.9422     44.92024      2204118          147  0.007193656   -148838.71   -145922.99 
   15100    1222.5154    140.74116      2204118          147  0.007193656   -148869.53   -145976.12 
   15200    1208.1041   -62.258696      2204118          147  0.007193656   -148893.21   -146033.91 
   15300    1178.5922     27.40809      2204118          147  0.007193656   -148880.58   -146091.13 
   15400    1183.6677   -17.121538      2204118          147  0.007193656   -148877.44   -146075.98 
   15500     1235.508    192.96436      2204118          147  0.007193656   -148943.04   -146018.89 
   15600    1228.5332    171.40781      2204118          147  0.007193656   -148962.85    -146055.2 
   15700    1172.8585   -108.72814      2204118          147  0.007193656   -148863.04   -146087.17 
   15800    1196.3937   -61.065848      2204118          147  0.007193656   -148903.31   -146071.72 
   15900     1176.943   -95.690746      2204118          147  0.007193656   -148704.49   -145918.94 
   16000    1222.1153    -91.04529      2204118          147  0.007193656   -148668.24   -145775.78 
   16100    1234.6874   -105.98931      2204118          147  0.007193656   -148789.98   -145867.77 
   16200    1178.7496     29.12814      2204118          147  0.007193656   -148787.04   -145997.21 
   16300    1229.6668    113.53321      2204118          147  0.007193656   -149017.21   -146106.88 
   16400    1205.0622    219.49799      2204118          147  0.007193656   -148987.27   -146135.17 
   16500    1092.3681    264.89992      2204118          147  0.007193656   -148705.12   -146119.75 
   16600    1214.3683    35.164939      2204118          147  0.007193656   -148841.56   -145967.44 
   16700    1190.8388   -111.81504      2204118          147  0.007193656   -148628.02   -145809.58 
   16800    1200.8174   -35.697868      2204118          147  0.007193656    -148768.9   -145926.85 
   16900    1192.1981   -47.105757      2204118          147  0.007193656   -148858.93   -146037.28 
   17000    1206.7317    130.58822      2204118          147  0.007193656   -148962.26   -146106.22 
   17100    1199.6945    71.354744      2204118          147  0.007193656   -148921.11   -146081.72 
   17200    1197.9927   -61.696303      2204118          147  0.007193656   -148837.29   -146001.93 
   17300    1253.1527   -62.718194      2204118          147  0.007193656   -148744.01   -145778.09 
   17400    1299.0668    59.865635      2204118          147  0.007193656   -148859.11   -145784.53 
   17500    1252.3246   -118.17047      2204118          147  0.007193656   -148951.56    -145987.6 
   17600    1235.1128    105.82371      2204118          147  0.007193656   -148972.62    -146049.4 
   17700    1164.1072     175.6764      2204118          147  0.007193656   -148859.56    -146104.4 
   17800    1190.3628   -63.361508      2204118          147  0.007193656   -148955.94   -146138.63 
   17900    1182.6898     -85.4709      2204118          147  0.007193656   -149007.62   -146208.48 
   18000    1180.7891    21.522287      2204118          147  0.007193656   -149063.72   -146269.08 
   18100    1155.0433   -2.4662919      2204118          147  0.007193656   -148908.44   -146174.72 
   18200    1218.1315   -52.660524      2204118          147  0.007193656   -148876.79   -145993.76 
   18300    1211.7718   -81.856325      2204118          147  0.007193656   -148835.73   -145967.76 
   18400    1223.8771    33.257896      2204118          147  0.007193656   -148866.56   -145969.93 
   18500    1155.4862   -287.75678      2204118          147  0.007193656   -148820.38   -146085.62 
   18600    1184.0134    -22.04225      2204118          147  0.007193656   -149058.91   -146256.63 
   18700    1187.6544    288.85835      2204118          147  0.007193656   -149075.75   -146264.85 
   18800    1200.9632  0.085032048      2204118          147  0.007193656    -148983.5   -146141.11 
   18900    1195.1227    63.216117      2204118          147  0.007193656   -148823.91   -145995.34 
   19000    1221.6223   -241.40009      2204118          147  0.007193656   -148886.31   -145995.02 
   19100    1180.0742   -70.878479      2204118          147  0.007193656   -148825.71   -146032.76 
   19200    1234.8406    133.15136      2204118          147  0.007193656   -149039.03   -146116.45 
   19300    1119.7434     -1.67596      2204118          147  0.007193656   -148939.75   -146289.59 
   19400    1146.3199    210.84118      2204118          147  0.007193656   -148963.99   -146250.93 
   19500    1193.0552   -121.49656      2204118          147  0.007193656    -148954.6   -146130.92 
   19600    1204.3993   -164.40006      2204118          147  0.007193656   -148925.34   -146074.81 
   19700    1233.5379   -36.632898      2204118          147  0.007193656   -148946.55   -146027.06 
   19800    1245.0442    33.947926      2204118          147  0.007193656   -148985.06   -146038.34 
   19900    1175.3766    174.66837      2204118          147  0.007193656   -148939.58   -146157.74 
   20000    1230.3816    169.76291      2204118          147  0.007193656   -149164.16   -146252.14 
   20100    1112.3249   -49.239093      2204118          147  0.007193656   -148837.43   -146204.82 
   20200    1200.5322   -74.857238      2204118          147  0.007193656   -148809.82   -145968.44 
   20300     1289.592    16.537211      2204118          147  0.007193656   -149005.13   -145952.97 
   20400    1168.8631    18.603241      2204118          147  0.007193656   -148823.11   -146056.69 
   20500    1187.1849   -80.140144      2204118          147  0.007193656   -148960.06   -146150.27 
   20600      1134.94   -37.808332      2204118          147  0.007193656   -148839.74    -146153.6 
   20700    1227.3409   -152.02598      2204118          147  0.007193656   -148806.14   -145901.32 
   20800    1238.6828   -61.497581      2204118          147  0.007193656   -148727.77    -145796.1 
   20900    1251.7879    86.677827      2204118          147  0.007193656   -148910.36   -145947.67 
   21000    1227.7668    70.600809      2204118          147  0.007193656   -148998.84   -146093.01 
   21100    1207.6175   -75.841812      2204118          147  0.007193656   -149055.07   -146196.92 
   21200    1154.4931    59.968577      2204118          147  0.007193656   -148938.86   -146206.45 
   21300    1263.6254    77.423512      2204118          147  0.007193656   -149060.43   -146069.72 
   21400    1237.5206   -95.386422      2204118          147  0.007193656   -148788.95   -145860.03 
   21500    1207.0065     82.13913      2204118          147  0.007193656   -148749.64   -145892.94 
   21600    1193.8545    34.989705      2204118          147  0.007193656   -148825.17    -145999.6 
   21700    1251.1001    -73.61766      2204118          147  0.007193656   -149069.32   -146108.26 
   21800    1214.5533   -50.905299      2204118          147  0.007193656   -149047.15   -146172.59 
   21900     1180.131   -133.19402      2204118          147  0.007193656      -148937   -146143.91 
   22000    1215.2818    110.06807      2204118          147  0.007193656   -148877.23   -146000.95 
   22100    1220.3693    16.810767      2204118          147  0.007193656   -148696.13    -145807.8 
   22200    1234.2333    247.27442      2204118          147  0.007193656   -148844.97   -145923.83 
   22300    1151.4991    25.625162      2204118          147  0.007193656   -148773.11   -146047.78 
   22400    1196.2824   -63.224825      2204118          147  0.007193656   -148932.18   -146100.86 
   22500    1187.9819    73.743327      2204118          147  0.007193656    -148956.8   -146145.13 
   22600     1155.802    70.644946      2204118          147  0.007193656   -148923.18   -146187.67 
   22700    1147.6985    106.88143      2204118          147  0.007193656   -148992.95   -146276.62 
   22800    1138.9888    84.964744      2204118          147  0.007193656   -149048.13   -146352.42 
   22900    1171.8465   -109.98755      2204118          147  0.007193656   -149000.27   -146226.79 
   23000    1181.9895   -149.83181      2204118          147  0.007193656    -148844.7   -146047.21 
   23100    1227.8256   -77.072001      2204118          147  0.007193656   -148891.89   -145985.92 
   23200    1260.2085    124.73939      2204118          147  0.007193656   -149001.95   -146019.34 
   23300    1182.1435    118.44047      2204118          147  0.007193656   -148991.57   -146193.71 
   23400     1172.957   -55.401991      2204118          147  0.007193656   -149009.56   -146233.45 
   23500    1119.8356    76.863985      2204118          147  0.007193656   -148803.69    -146153.3 
   23600    1230.7675     43.82449      2204118          147  0.007193656   -148982.21   -146069.27 
   23700    1181.7068    36.041591      2204118          147  0.007193656   -148789.45   -145992.63 
   23800    1234.8284    134.66635      2204118          147  0.007193656   -148898.97   -145976.42 
   23900    1166.6801   -114.95383      2204118          147  0.007193656   -148980.05   -146218.79 
   24000    1195.4429    124.31812      2204118          147  0.007193656   -149141.47   -146312.14 
   24100    1127.3427   -75.622297      2204118          147  0.007193656   -148904.17   -146236.02 
   24200    1238.2549   -51.820014      2204118          147  0.007193656   -148964.74   -146034.09 
   24300    1210.0766    51.206031      2204118          147  0.007193656   -148856.76    -145992.8 
   24400    1253.7675    19.220208      2204118          147  0.007193656   -148980.88   -146013.51 
   24500    1174.7934     39.78307      2204118          147  0.007193656   -148988.92   -146208.47 
   24600    1205.2394    150.83331      2204118          147  0.007193656   -149079.84   -146227.33 
   24700     1205.712      77.1867      2204118          147  0.007193656   -149044.65   -146191.01 
   24800    1225.8005    90.617578      2204118          147  0.007193656   -148997.75   -146096.57 
   24900    1206.9248    38.017339      2204118          147  0.007193656   -148820.09   -145963.58 
   25000    1209.3139   -69.183532      2204118          147  0.007193656   -148865.82   -146003.66 
   25100    1222.6898    29.438256      2204118          147  0.007193656   -148967.84   -146074.02 
   25200    1134.7514   -22.775711      2204118          147  0.007193656   -148794.38    -146108.7 
   25300    1196.5641   -96.799254      2204118          147  0.007193656   -148918.72   -146086.73 
   25400    1224.4416   -74.012321      2204118          147  0.007193656   -148942.14   -146044.18 
   25500    1138.1418   -80.570937      2204118          147  0.007193656   -148727.03   -146033.32 
   25600    1218.1226   -83.121998      2204118          147  0.007193656   -148977.39   -146094.38 
   25700    1124.9139    -28.88531      2204118          147  0.007193656   -148919.95   -146257.55 
   25800     1195.663     52.08614      2204118          147  0.007193656   -149113.87   -146284.02 
   25900     1228.165   -44.274275      2204118          147  0.007193656   -149042.15   -146135.37 
   26000    1180.0066   -8.7706432      2204118          147  0.007193656   -148773.59   -145980.79 
   26100    1199.9623    151.47463      2204118          147  0.007193656   -148831.41   -145991.38 
   26200    1236.1228   -51.007816      2204118          147  0.007193656      -148998   -146072.39 
   26300    1225.4556    9.2605414      2204118          147  0.007193656   -149076.01   -146175.65 
   26400    1187.5954    112.65461      2204118          147  0.007193656   -149094.39   -146283.63 
   26500    1131.7357    84.293252      2204118          147  0.007193656   -149129.23   -146450.68 
   26600    1130.2275   -167.59635      2204118          147  0.007193656   -149039.37   -146364.39 
   26700     1162.024   -78.695313      2204118          147  0.007193656   -148874.72   -146124.48 
   26800    1216.1605   -88.650424      2204118          147  0.007193656   -148877.02   -145998.65 
   26900    1236.1807   -136.60456      2204118          147  0.007193656   -148844.35    -145918.6 
   27000    1180.0546   -11.907171      2204118          147  0.007193656   -148751.18   -145958.27 
   27100     1223.266    171.57613      2204118          147  0.007193656   -149012.58    -146117.4 
   27200    1146.3906    20.204412      2204118          147  0.007193656   -148915.56   -146202.33 
   27300    1171.7564   -88.106466      2204118          147  0.007193656   -148940.02   -146166.75 
   27400    1211.6198   -141.50024      2204118          147  0.007193656   -148945.05   -146077.43 
   27500    1248.6206    75.386035      2204118          147  0.007193656   -148984.83   -146029.64 
   27600    1192.1016   -68.852155      2204118          147  0.007193656   -148872.29   -146050.86 
   27700    1215.9505    26.850798      2204118          147  0.007193656   -148900.22   -146022.35 
   27800      1161.79   -29.160385      2204118          147  0.007193656   -148824.69   -146075.01 
   27900    1218.5182   -62.534674      2204118          147  0.007193656   -149072.12   -146188.17 
   28000    1154.8132   -44.335216      2204118          147  0.007193656   -148970.92   -146237.75 
   28100      1172.07    41.358638      2204118          147  0.007193656   -148887.07   -146113.06 
   28200     1258.031    145.83881      2204118          147  0.007193656   -148910.42   -145932.96 
   28300    1298.7271    65.760013      2204118          147  0.007193656    -149014.8   -145941.02 
   28400    1181.1244   -126.32523      2204118          147  0.007193656   -148842.23   -146046.79 
   28500    1231.4911    -183.9858      2204118          147  0.007193656   -148986.56   -146071.91 
   28600    1145.5863    52.816097      2204118          147  0.007193656      -148794   -146082.67 
   28700     1135.042    7.2155852      2204118          147  0.007193656   -148764.51   -146078.13 
   28800    1201.8495    40.923166      2204118          147  0.007193656   -148880.94   -146036.44 
   28900    1196.4631    18.389864      2204118          147  0.007193656   -148962.57   -146130.82 
   29000    1172.2349    -122.7122      2204118          147  0.007193656   -149062.28   -146287.88 
   29100    1137.0502   -73.901277      2204118          147  0.007193656   -148955.77   -146264.64 
   29200    1236.2104    150.75962      2204118          147  0.007193656   -149011.97   -146086.15 
   29300    1251.6093    44.975351      2204118          147  0.007193656   -148979.68   -146017.42 
   29400    1194.9447    89.957128      2204118          147  0.007193656   -148865.01   -146036.86 
   29500    1196.8952    79.103462      2204118          147  0.007193656   -148927.76   -146094.99 
   29600    1199.2434    -47.82016      2204118          147  0.007193656    -149074.5   -146236.18 
   29700    1148.6611    53.507325      2204118          147  0.007193656   -149087.15   -146368.54 
   29800    1192.6115    141.17026      2204118          147  0.007193656   -149129.25   -146306.62 
   29900    1220.3468    51.062404      2204118          147  0.007193656   -149027.36   -146139.09 
   30000    1190.0135   -49.259758      2204118          147  0.007193656   -148905.74   -146089.26 
   30100    1200.1075   -133.45849      2204118          147  0.007193656   -148925.73   -146085.36 
   30200    1177.7619     10.86232      2204118          147  0.007193656   -148804.71   -146017.22 
   30300    1224.8032    105.36608      2204118          147  0.007193656   -148871.94   -145973.12 
   30400     1156.947   -121.00416      2204118          147  0.007193656   -148868.51   -146130.29 
   30500    1244.1615    171.20944      2204118          147  0.007193656   -149180.65   -146236.02 
   30600    1161.7922  0.013306988      2204118          147  0.007193656   -148941.79    -146192.1 
   30700    1161.7228   -168.46382      2204118          147  0.007193656   -148751.95   -146002.43 
   30800    1269.7563    162.56657      2204118          147  0.007193656    -148902.8   -145897.59 
   30900    1204.6454    72.971567      2204118          147  0.007193656   -148807.95   -145956.84 
   31000    1194.8528     139.1539      2204118          147  0.007193656   -148915.99   -146088.05 
   31100    1139.9694    50.285858      2204118          147  0.007193656   -148869.33   -146171.29 
   31200     1188.711   -230.55897      2204118          147  0.007193656   -149012.57   -146199.17 
   31300    1240.1926   -95.679645      2204118          147  0.007193656      -149042   -146106.76 
   31400     1280.561   -233.58141      2204118          147  0.007193656   -148929.01   -145898.23 
   31500    1197.5082    148.04344      2204118          147  0.007193656   -148804.74   -145970.52 
   31600     1283.781    32.747009      2204118          147  0.007193656   -149170.61   -146132.21 
   31700    1160.4991   -46.700777      2204118          147  0.007193656   -148973.08   -146226.45 
   31800    1130.7121    21.330024      2204118          147  0.007193656   -148896.84   -146220.71 
   31900    1147.2715   -142.23337      2204118          147  0.007193656   -148811.34   -146096.02 
   32000    1184.6094    173.08893      2204118          147  0.007193656   -148833.31   -146029.62 
   32100     1207.699    188.31112      2204118          147  0.007193656   -148974.78   -146116.45 
   32200     1163.066   -117.23563      2204118          147  0.007193656   -149126.11   -146373.41 
   32300    1189.1934    15.723655      2204118          147  0.007193656   -149101.73    -146287.2 
   32400    1168.8274    -60.41529      2204118          147  0.007193656   -148893.94   -146127.61 
   32500     1209.924   -57.295762      2204118          147  0.007193656   -148897.51    -146033.9 
   32600    1196.0185   -54.585554      2204118          147  0.007193656   -148844.83   -146014.14 
   32700    1179.9669   -20.942294      2204118          147  0.007193656   -148951.43   -146158.73 
   32800    1176.8243    144.29408      2204118          147  0.007193656   -149074.93   -146289.66 
   32900    1171.2177   -19.915362      2204118          147  0.007193656   -149029.51   -146257.51 
   33000    1137.4684    76.640786      2204118          147  0.007193656   -148783.37   -146091.26 
   33100    1131.0585   -36.590532      2204118          147  0.007193656   -148671.78   -145994.83 
   33200    1217.5887   -39.144261      2204118          147  0.007193656   -148910.44    -146028.7 
   33300    1262.9628    64.903427      2204118          147  0.007193656   -149101.39   -146112.25 
   33400    1143.0396    69.668081      2204118          147  0.007193656    -148937.9   -146232.59 
   33500    1174.5371   -16.487061      2204118          147  0.007193656   -149017.87   -146238.01 
   33600    1231.3233   -67.250718      2204118          147  0.007193656   -148982.88   -146068.63 
   33700    1220.8687   -69.197192      2204118          147  0.007193656   -148804.68   -145915.17 
   33800    1158.1843    76.512541      2204118          147  0.007193656   -148665.13   -145923.98 
   33900    1218.8012   -58.399635      2204118          147  0.007193656   -148952.01   -146067.39 
   34000    1174.0688    -54.18575      2204118          147  0.007193656   -148950.51   -146171.77 
   34100    1171.8164    337.48098      2204118          147  0.007193656   -148973.18   -146199.77 
   34200    1187.0318   -130.60733      2204118          147  0.007193656      -148985   -146175.57 
   34300    1174.7914    64.207178      2204118          147  0.007193656   -148910.15   -146129.69 
   34400    1212.5358   -118.59945      2204118          147  0.007193656   -148969.94   -146100.15 
   34500    1208.7109    54.008612      2204118          147  0.007193656   -148949.53    -146088.8 
   34600    1229.8229    155.67308      2204118          147  0.007193656   -149049.98   -146139.28 
   34700    1172.4277    61.944163      2204118          147  0.007193656   -149076.78   -146301.92 
   34800    1184.1905   -88.951112      2204118          147  0.007193656   -149056.98   -146254.29 
   34900    1162.2858   -146.61899      2204118          147  0.007193656   -148848.82   -146097.97 
   35000    1224.4547   -138.44123      2204118          147  0.007193656    -148916.1    -146018.1 
   35100    1208.9347    144.00439      2204118          147  0.007193656   -148903.29   -146042.03 
   35200    1240.9512    98.377006      2204118          147  0.007193656   -149024.69   -146087.66 
   35300    1187.7416    49.674593      2204118          147  0.007193656   -148964.49   -146153.38 
   35400    1150.3992    106.03092      2204118          147  0.007193656   -149002.33   -146279.61 
   35500    1118.2792   -66.033886      2204118          147  0.007193656   -149067.33   -146420.62 
   35600    1115.3274    7.6342908      2204118          147  0.007193656   -149111.46   -146471.74 
   35700    1179.0432    170.39517      2204118          147  0.007193656   -149030.74   -146240.23 
   35800    1216.7075    6.4490378      2204118          147  0.007193656   -148993.85   -146114.19 
   35900    1187.8626    12.244768      2204118          147  0.007193656   -148911.99    -146100.6 
   36000    1277.8786   -58.111174      2204118          147  0.007193656   -149051.65   -146027.22 
   36100    1205.4487    42.660318      2204118          147  0.007193656    -148787.9   -145934.89 
   36200    1329.3825   -40.227217      2204118          147  0.007193656   -149060.92   -145914.59 
   36300    1185.3137   -24.341925      2204118          147  0.007193656   -148939.34   -146133.98 
   36400    1170.7976    67.803456      2204118          147  0.007193656   -148970.22   -146199.22 
   36500    1188.7948   -56.846829      2204118          147  0.007193656   -148944.75   -146131.15 
   36600    1233.2648   -38.190931      2204118          147  0.007193656   -148963.72   -146044.87 
   36700    1247.7126   -113.70441      2204118          147  0.007193656   -148951.34    -145998.3 
   36800    1159.2048    39.006148      2204118          147  0.007193656   -148733.52   -145989.96 
   36900    1227.8114    198.86878      2204118          147  0.007193656   -148998.36   -146092.42 
   37000    1186.9218   -56.650324      2204118          147  0.007193656    -149041.2   -146232.04 
   37100    1223.6636   -128.14069      2204118          147  0.007193656   -149138.43   -146242.31 
   37200    1191.6477   -12.690433      2204118          147  0.007193656   -148953.32   -146132.97 
   37300       1218.3    -11.34861      2204118          147  0.007193656   -148800.05   -145916.62 
   37400    1229.0922   -13.455933      2204118          147  0.007193656   -148775.93   -145866.96 
   37500    1234.0484    1.6508493      2204118          147  0.007193656    -148900.4    -145979.7 
   37600    1212.2548    51.269003      2204118          147  0.007193656   -148969.88   -146100.76 
   37700    1199.2276    35.509604      2204118          147  0.007193656   -148980.35   -146142.06 
   37800    1192.2195    20.018669      2204118          147  0.007193656   -149036.92   -146215.22 
   37900    1198.0027    70.817567      2204118          147  0.007193656    -149005.1   -146169.71 
   38000    1278.9392    5.4945996      2204118          147  0.007193656   -148960.23   -145933.28 
   38100    1283.7032   -115.46499      2204118          147  0.007193656   -148949.11   -145910.89 
   38200      1184.22    17.364202      2204118          147  0.007193656   -148858.27    -146055.5 
   38300    1205.4002    33.022247      2204118          147  0.007193656   -149012.72   -146159.82 
   38400    1159.3803   -22.730774      2204118          147  0.007193656   -148950.76   -146206.78 
   38500    1182.2131    8.0384983      2204118          147  0.007193656   -148998.79   -146200.77 
   38600    1201.0206   -114.37327      2204118          147  0.007193656   -148884.95   -146042.41 
   38700    1199.3401   -3.8484929      2204118          147  0.007193656   -148743.02   -145904.47 
   38800    1174.1625    155.03894      2204118          147  0.007193656   -148761.07    -145982.1 
   38900    1223.2289   -39.257312      2204118          147  0.007193656   -148949.99    -146054.9 
   39000    1214.8465    41.071393      2204118          147  0.007193656   -149018.13   -146142.88 
   39100    1198.1888   -85.428859      2204118          147  0.007193656    -149012.5   -146176.67 
   39200     1207.843    171.11461      2204118          147  0.007193656   -149001.74   -146143.06 
   39300    1237.3837     58.24512      2204118          147  0.007193656   -148871.13   -145942.53 
   39400    1264.8086    29.036077      2204118          147  0.007193656    -148842.5      -145849 
   39500    1265.1184   -34.860569      2204118          147  0.007193656   -148990.88   -145996.65 
   39600     1173.414   -46.859905      2204118          147  0.007193656   -148912.44   -146135.25 
   39700     1139.367    94.466079      2204118          147  0.007193656   -148850.91    -146154.3 
   39800    1221.1189    -101.8921      2204118          147  0.007193656   -149021.79    -146131.7 
   39900    1263.7675    55.555063      2204118          147  0.007193656   -148951.31   -145960.27 
   40000    1222.0433    96.031007      2204118          147  0.007193656   -148789.55   -145897.27 
   40100    1250.7568   -14.954376      2204118          147  0.007193656   -148980.09   -146019.84 
   40200    1123.6731    118.80879      2204118          147  0.007193656   -148860.49   -146201.03 
   40300    1179.6587    23.264972      2204118          147  0.007193656   -149007.36   -146215.39 
   40400     1180.054    98.877618      2204118          147  0.007193656   -148945.48   -146152.57 
   40500    1215.9325   -9.6453679      2204118          147  0.007193656   -148877.86   -146000.04 
   40600    1194.0934   -79.398218      2204118          147  0.007193656   -148755.35   -145929.21 
   40700    1211.2984   -45.409759      2204118          147  0.007193656   -148950.37   -146083.51 
   40800    1163.2569   -45.723235      2204118          147  0.007193656   -149006.63   -146253.47 
   40900    1115.5941   -22.168447      2204118          147  0.007193656   -148866.17   -146225.82 
   41000    1190.4958   -64.637207      2204118          147  0.007193656   -148889.11   -146071.49 
   41100    1178.6883    159.34266      2204118          147  0.007193656   -148792.43   -146002.75 
   41200    1243.7956    39.324983      2204118          147  0.007193656   -148942.55   -145998.78 
   41300    1172.7106   -16.236983      2204118          147  0.007193656   -149038.27   -146262.74 
   41400    1135.0072    100.51872      2204118          147  0.007193656   -148961.58   -146275.29 
   41500    1191.7521    71.356062      2204118          147  0.007193656   -148950.28   -146129.68 
   41600    1217.1965   -66.680879      2204118          147  0.007193656   -148896.82   -146016.01 
   41700    1250.6421   -16.409655      2204118          147  0.007193656   -148946.67    -145986.7 
   41800    1134.3581     -132.367      2204118          147  0.007193656   -148832.47   -146147.71 
   41900    1215.0177    86.716047      2204118          147  0.007193656   -149136.68   -146261.02 
   42000    1184.0526    118.03884      2204118          147  0.007193656   -149054.64   -146252.27 
   42100    1183.3396    108.89293      2204118          147  0.007193656   -148960.89    -146160.2 
   42200    1245.5441    23.515444      2204118          147  0.007193656   -149017.88   -146069.97 
   42300    1190.0546   -95.754194      2204118          147  0.007193656   -148852.31   -146035.73 
   42400    1265.3468   -78.139503      2204118          147  0.007193656   -149023.42   -146028.64 
   42500    1201.9348    25.514592      2204118          147  0.007193656   -148978.34   -146133.65 
   42600    1187.6934    67.749584      2204118          147  0.007193656   -149029.58   -146218.59 
   42700    1240.0327   -34.485619      2204118          147  0.007193656   -149154.57   -146219.71 
   42800    1182.8859   -126.37308      2204118          147  0.007193656   -148920.69   -146121.08 
   42900     1255.615   -92.658975      2204118          147  0.007193656   -148905.25   -145933.51 
   43000    1278.4058    30.877985      2204118          147  0.007193656   -148976.49    -145950.8 
   43100     1224.057    133.68804      2204118          147  0.007193656   -148940.45    -146043.4 
   43200      1227.39    -30.12144      2204118          147  0.007193656   -148990.12   -146085.18 
   43300    1180.0284   -76.869567      2204118          147  0.007193656   -148912.24   -146119.39 
   43400     1135.438    55.078894      2204118          147  0.007193656   -148791.56   -146104.24 
   43500    1187.6969    51.887703      2204118          147  0.007193656   -148910.34   -146099.34 
   43600    1181.9457   -59.252244      2204118          147  0.007193656   -148799.06   -146001.67 
   43700    1357.2425    112.57585      2204118          147  0.007193656    -149052.7   -145840.43 
   43800    1205.5417    22.694359      2204118          147  0.007193656   -148807.09   -145953.86 
   43900    1251.9743   -66.078019      2204118          147  0.007193656   -149054.02   -146090.89 
   44000    1198.4839   -158.55348      2204118          147  0.007193656   -148984.75   -146148.22 
   44100    1213.5365    24.628308      2204118          147  0.007193656   -149013.82   -146141.66 
   44200    1188.5674    8.1246536      2204118          147  0.007193656   -148988.54   -146175.49 
   44300    1158.2582    55.648739      2204118          147  0.007193656    -148923.4   -146182.08 
   44400    1188.2992   -89.279566      2204118          147  0.007193656   -148932.43   -146120.01 
   44500    1199.3841    21.066057      2204118          147  0.007193656   -148835.45    -145996.8 
   44600    1190.0631     28.82798      2204118          147  0.007193656   -148760.56   -145943.97 
   44700    1226.6193    92.057791      2204118          147  0.007193656   -148952.82   -146049.71 
   44800    1192.9777    66.643724      2204118          147  0.007193656   -149053.15   -146229.66 
   44900     1184.593     44.59612      2204118          147  0.007193656   -149043.03   -146239.37 
   45000    1185.4179   -79.563013      2204118          147  0.007193656   -148962.98   -146157.38 
   45100    1245.2598    160.19026      2204118          147  0.007193656   -148974.37   -146027.13 
   45200     1231.478    245.97927      2204118          147  0.007193656   -148898.34   -145983.73 
   45300    1213.7574      109.612      2204118          147  0.007193656   -148931.36   -146058.68 
   45400    1160.1472   -43.182181      2204118          147  0.007193656   -148879.77   -146133.97 
   45500    1229.5988   -160.54219      2204118          147  0.007193656   -149123.13   -146212.96 
   45600    1196.1049   -90.165981      2204118          147  0.007193656   -149071.93   -146241.04 
   45700    1210.7422    128.66313      2204118          147  0.007193656   -148936.84    -146071.3 
   45800    1209.8347   -61.102744      2204118          147  0.007193656   -148825.85   -145962.45 
   45900    1258.7307    121.12648      2204118          147  0.007193656   -148957.47   -145978.35 
   46000     1218.135   -83.219691      2204118          147  0.007193656   -149039.41   -146156.37 
   46100     1209.463   -80.901282      2204118          147  0.007193656   -149054.45   -146191.94 
   46200    1227.1053    43.967043      2204118          147  0.007193656   -149049.71   -146145.45 
   46300    1159.1495   -102.61726      2204118          147  0.007193656   -148819.49   -146076.06 
   46400    1193.1195    3.2992537      2204118          147  0.007193656   -148830.31   -146006.48 
   46500    1184.8896   -23.613588      2204118          147  0.007193656   -148922.71   -146118.35 
   46600    1204.7582    57.383333      2204118          147  0.007193656   -149131.77    -146280.4 
   46700     1195.942   -21.364736      2204118          147  0.007193656   -149089.96   -146259.45 
   46800    1224.4281   -161.51459      2204118          147  0.007193656   -148967.98   -146070.04 
   46900    1245.8547   -76.918561      2204118          147  0.007193656   -148939.42   -145990.77 
   47000    1197.1415    37.115735      2204118          147  0.007193656   -148877.02   -146043.67 
   47100    1173.5248    71.410082      2204118          147  0.007193656    -148931.3   -146153.84 
   47200    1188.6436   -16.752791      2204118          147  0.007193656   -149099.03    -146285.8 
   47300    1144.9491    25.358913      2204118          147  0.007193656   -149177.05   -146467.23 
   47400     1217.072   -47.689933      2204118          147  0.007193656   -149230.57   -146350.05 
   47500    1146.7277    99.124044      2204118          147  0.007193656   -148927.19   -146213.16 
   47600    1267.1052    105.00915      2204118          147  0.007193656   -149113.45   -146114.51 
   47700    1197.2445   -147.16348      2204118          147  0.007193656   -148920.67   -146087.08 
   47800    1275.0471    69.757864      2204118          147  0.007193656   -149092.37   -146074.63 
   47900     1162.586   -146.97623      2204118          147  0.007193656   -148887.39   -146135.82 
   48000    1229.6445   -93.119159      2204118          147  0.007193656   -149143.11   -146232.83 
   48100    1166.7919    94.046339      2204118          147  0.007193656    -148977.2   -146215.68 
   48200    1208.0365   -142.74971      2204118          147  0.007193656   -148911.98   -146052.85 
   48300    1223.8793    126.52694      2204118          147  0.007193656   -148809.48   -145912.85 
   48400    1293.5039   -13.972355      2204118          147  0.007193656   -148993.87   -145932.45 
   48500    1231.2081   -115.16741      2204118          147  0.007193656   -148948.92   -146034.95 
   48600    1206.6093    99.914701      2204118          147  0.007193656   -148952.81   -146097.05 
   48700     1179.704    103.88143      2204118          147  0.007193656   -148927.51   -146135.43 
   48800    1280.4807   -54.426217      2204118          147  0.007193656   -149172.21   -146141.62 
   48900    1165.4477    27.689575      2204118          147  0.007193656   -148880.68   -146122.35 
   49000    1218.4697   -13.917358      2204118          147  0.007193656   -148893.18   -146009.36 
   49100    1261.7105    63.342331      2204118          147  0.007193656   -148911.35   -145925.18 
   49200    1236.6063   -45.051366      2204118          147  0.007193656   -148973.95   -146047.19 
   49300    1193.6113   -237.79351      2204118          147  0.007193656   -149022.83   -146197.84 
   49400    1192.9362    86.680503      2204118          147  0.007193656   -149019.71   -146196.31 
   49500    1137.3471    9.2609481      2204118          147  0.007193656   -148837.21   -146145.38 
   49600    1226.2967    122.80498      2204118          147  0.007193656   -148891.72   -145989.36 
   49700    1254.1123   -61.508896      2204118          147  0.007193656   -148818.72   -145850.54 
   49800     1259.764   -6.3146227      2204118          147  0.007193656   -148705.13   -145723.56 
   49900    1201.0923    36.411373      2204118          147  0.007193656   -148681.97   -145839.27 
   50000    1213.6015    9.7902339      2204118          147  0.007193656    -148924.4   -146052.09 
   50100    1170.6808    -64.61853      2204118          147  0.007193656    -148899.9   -146129.17 
   50200     1160.975    17.934949      2204118          147  0.007193656   -148920.31   -146172.56 
   50300    1172.0001   -9.7124711      2204118          147  0.007193656   -148945.72   -146171.87 
   50400    1219.5042   -1.1267095      2204118          147  0.007193656   -149061.13   -146174.85 
   50500    1210.8402   -32.137221      2204118          147  0.007193656   -148965.93   -146100.15 
   50600    1254.0964   -105.08709      2204118          147  0.007193656   -148949.88   -145981.73 
   50700    1162.1774   -24.800527      2204118          147  0.007193656    -148695.6      -145945 
   50800    1258.9381    87.676014      2204118          147  0.007193656   -149095.66   -146116.06 
   50900    1181.5884   -81.934308      2204118          147  0.007193656   -149056.34    -146259.8 
   51000    1183.6299    63.206199      2204118          147  0.007193656   -148991.82   -146190.45 
   51100    1182.5289    27.813517      2204118          147  0.007193656   -148863.14   -146064.38 
   51200    1212.0084   -31.837589      2204118          147  0.007193656   -148862.38   -145993.85 
   51300    1300.4335   -35.226526      2204118          147  0.007193656   -149016.98   -145939.17 
   51400    1216.9408   -1.9411704      2204118          147  0.007193656   -148867.35   -145987.14 
   51500    1177.0212   -30.802902      2204118          147  0.007193656   -148929.56   -146143.83 
   51600    1179.8229   -16.385813      2204118          147  0.007193656   -149020.64   -146228.28 
   51700    1273.3801   -44.110098      2204118          147  0.007193656   -149209.06   -146195.27 
   51800       1238.4   -14.255663      2204118          147  0.007193656    -148953.4    -146022.4 
   51900    1279.0034   -52.475181      2204118          147  0.007193656   -148911.03   -145883.93 
   52000    1243.7836   -63.257928      2204118          147  0.007193656   -148912.59   -145968.85 
   52100    1178.5733    112.35163      2204118          147  0.007193656   -148849.32   -146059.91 
   52200    1168.3039   -77.565593      2204118          147  0.007193656   -148868.82   -146103.72 
   52300     1176.904    49.708728      2204118          147  0.007193656   -148905.52   -146120.07 
   52400    1163.1877   -123.31611      2204118          147  0.007193656   -148956.43   -146203.44 
   52500    1135.7119   -157.41804      2204118          147  0.007193656   -149038.95   -146350.99 
   52600    1186.3864    120.69503      2204118          147  0.007193656   -149148.94   -146341.04 
   52700    1192.1522   -84.027284      2204118          147  0.007193656   -148966.01   -146144.47 
   52800    1212.6326   -9.9454871      2204118          147  0.007193656   -148918.96   -146048.94 
   52900    1166.2047    58.420336      2204118          147  0.007193656   -148811.42   -146051.28 
   53000    1240.9497     -80.6965      2204118          147  0.007193656   -149022.22   -146085.18 
   53100    1195.1569    66.897422      2204118          147  0.007193656   -149048.73   -146220.08 
   53200    1150.4981   -20.885651      2204118          147  0.007193656   -149053.16    -146330.2 
   53300    1195.5016    47.099467      2204118          147  0.007193656    -149041.3   -146211.83 
   53400    1174.0375   -95.868737      2204118          147  0.007193656   -148811.47    -146032.8 
   53500    1201.2699    63.820218      2204118          147  0.007193656   -148850.56   -146007.44 
   53600     1184.565    46.223274      2204118          147  0.007193656   -148868.96   -146065.38 
   53700    1154.1199   -47.857169      2204118          147  0.007193656   -148909.96   -146178.44 
   53800    1146.6437   -8.5170757      2204118          147  0.007193656   -149005.89   -146292.06 
   53900    1158.3849    -36.77647      2204118          147  0.007193656   -149085.16   -146343.53 
   54000    1131.1369   -76.388314      2204118          147  0.007193656   -148840.03   -146162.89 
   54100    1252.6727    4.2467097      2204118          147  0.007193656   -148983.06   -146018.28 
   54200    1215.0004   -67.422965      2204118          147  0.007193656   -148877.77   -146002.15 
   54300    1232.6494    114.70229      2204118          147  0.007193656   -149002.76   -146085.37 
   54400    1157.7282      66.9279      2204118          147  0.007193656    -149019.1   -146279.03 
   54500    1156.5445   -264.56755      2204118          147  0.007193656   -149019.22   -146281.95 
   54600    1191.3028    134.39164      2204118          147  0.007193656   -149004.99   -146185.46 
   54700    1173.8019    35.255107      2204118          147  0.007193656   -148903.63   -146125.52 
   54800    1166.5337   -32.028868      2204118          147  0.007193656   -148871.18   -146110.27 
   54900    1205.2601    52.878384      2204118          147  0.007193656   -148894.55   -146041.98 
   55000    1253.9385   -76.084341      2204118          147  0.007193656   -148838.72   -145870.94 
   55100    1268.0399   -70.088209      2204118          147  0.007193656   -148802.48   -145801.33 
   55200    1230.9763    32.781622      2204118          147  0.007193656   -148924.69   -146011.26 
   55300    1184.3435    106.04171      2204118          147  0.007193656    -148918.8   -146115.74 
   55400    1203.9618   -31.704759      2204118          147  0.007193656   -148978.16   -146128.67 
   55500     1199.712   -45.116642      2204118          147  0.007193656   -148927.32   -146087.89 
   55600    1207.9131    113.43371      2204118          147  0.007193656   -148866.01   -146007.17 
   55700    1263.8663    7.2538932      2204118          147  0.007193656   -148931.35   -145940.08 
   55800    1145.8182    70.489077      2204118          147  0.007193656   -148717.02   -146005.14 
   55900    1221.3687    6.0368543      2204118          147  0.007193656   -149061.03   -146170.34 
   56000    1242.2634   -66.734639      2204118          147  0.007193656    -149174.1   -146233.96 
   56100    1187.4771    27.370946      2204118          147  0.007193656   -149008.23   -146197.75 
   56200    1231.1288    180.61519      2204118          147  0.007193656   -148950.95   -146037.16 
   56300    1198.3061   -21.749907      2204118          147  0.007193656    -148736.9    -145900.8 
   56400    1229.3911   -116.85648      2204118          147  0.007193656   -148838.46   -145928.78 
   56500    1198.7575    -31.38015      2204118          147  0.007193656   -148868.59   -146031.42 
   56600    1178.4639    -92.09631      2204118          147  0.007193656   -148919.79   -146130.64 
   56700    1156.7007    79.736419      2204118          147  0.007193656   -148911.36   -146173.73 
   56800     1191.768    132.46501      2204118          147  0.007193656   -148958.16   -146137.53 
   56900    1199.7943    119.61379      2204118          147  0.007193656   -148849.91   -146010.28 
   57000    1255.2593    -64.20805      2204118          147  0.007193656   -148857.96   -145887.06 
   57100    1282.7046    26.776128      2204118          147  0.007193656   -148981.68   -145945.82 
   57200    1190.7534   -133.44604      2204118          147  0.007193656    -148933.5   -146115.27 
   57300    1181.8033   -55.495206      2204118          147  0.007193656   -148958.16   -146161.11 
   57400    1204.9781    216.40097      2204118          147  0.007193656   -148981.32   -146129.42 
   57500    1144.5491    34.635608      2204118          147  0.007193656   -148798.66   -146089.78 
   57600    1244.5232   -118.48287      2204118          147  0.007193656   -148902.62   -145957.13 
   57700    1224.7344   -144.66212      2204118          147  0.007193656      -148786   -145887.34 
   57800    1244.5788   -62.974837      2204118          147  0.007193656   -148947.24   -146001.61 
   57900    1178.1472     -4.61027      2204118          147  0.007193656   -148960.84   -146172.44 
   58000    1200.0448    85.184473      2204118          147  0.007193656   -149032.24   -146192.02 
   58100    1214.3735    77.735627      2204118          147  0.007193656   -149021.74   -146147.61 
   58200    1198.3996   -78.028114      2204118          147  0.007193656   -148868.22   -146031.89 
   58300    1248.7914    -57.38525      2204118          147  0.007193656   -148747.83   -145792.24 
   58400    1278.4113   -29.241419      2204118          147  0.007193656   -148807.74   -145782.04 
   58500    1267.6923    69.259074      2204118          147  0.007193656   -148922.54   -145922.21 
   58600    1205.8332    70.494834      2204118          147  0.007193656   -148883.33   -146029.41 
   58700    1226.0932    73.474478      2204118          147  0.007193656   -149056.49   -146154.62 
   58800    1143.5861   -106.33332      2204118          147  0.007193656   -148881.07   -146174.48 
   58900    1227.2085   -157.51986      2204118          147  0.007193656   -149012.08   -146107.57 
   59000    1198.4937   -35.119234      2204118          147  0.007193656   -148738.59   -145902.04 
   59100    1225.7069    57.486798      2204118          147  0.007193656   -148742.58   -145841.62 
   59200    1209.1637    170.56148      2204118          147  0.007193656   -148871.43   -146009.63 
   59300    1213.6675    26.273601      2204118          147  0.007193656   -148972.16    -146099.7 
   59400    1214.6369   -38.491383      2204118          147  0.007193656   -149025.09   -146150.34 
   59500    1162.7228   -82.611857      2204118          147  0.007193656   -148932.27   -146180.38 
   59600    1239.2252    -59.53846      2204118          147  0.007193656   -149021.16   -146088.21 
   59700    1226.4262   -74.284082      2204118          147  0.007193656   -148804.34   -145901.68 
   59800    1176.3514     45.13071      2204118          147  0.007193656   -148681.98   -145897.84 
   59900    1218.3637    98.905403      2204118          147  0.007193656   -148944.81   -146061.23 
   60000    1219.0999   -108.43114      2204118          147  0.007193656   -149029.45   -146144.13 
   60100    1148.7169   -188.54755      2204118          147  0.007193656   -148813.03   -146094.29 
   60200    1266.1786   -107.06198      2204118          147  0.007193656   -149023.26   -146026.51 
   60300    1202.1639    81.032707      2204118          147  0.007193656   -148872.92   -146027.68 
   60400    1247.4704    -26.92374      2204118          147  0.007193656   -149054.34   -146101.87 
   60500    1169.4636   -37.634656      2204118          147  0.007193656   -149015.09   -146247.25 
   60600    1189.0901   -277.41503      2204118          147  0.007193656   -149084.83   -146270.54 
   60700    1167.2023   -47.006858      2204118          147  0.007193656   -148814.65   -146052.16 
   60800    1284.0542    34.220894      2204118          147  0.007193656   -149016.02   -145976.97 
   60900    1241.6155    64.878102      2204118          147  0.007193656   -148968.31    -146029.7 
   61000    1195.3832    23.257682      2204118          147  0.007193656   -148967.86   -146138.67 
   61100    1178.5113    7.4932814      2204118          147  0.007193656   -149008.42   -146219.16 
   61200    1192.5725    22.094931      2204118          147  0.007193656   -149005.73   -146183.19 
   61300    1193.8833    25.539573      2204118          147  0.007193656   -148781.49   -145955.86 
   61400    1198.3673   -6.1275236      2204118          147  0.007193656   -148788.33   -145952.08 
   61500     1233.135    76.450486      2204118          147  0.007193656   -149015.43   -146096.89 
   61600    1145.9159    16.748994      2204118          147  0.007193656   -148915.77   -146203.66 
   61700    1157.9477   -55.893212      2204118          147  0.007193656   -148936.53   -146195.94 
   61800    1196.8824    161.83738      2204118          147  0.007193656   -148955.25   -146122.51 
   61900    1146.2869   -99.030644      2204118          147  0.007193656   -148717.03   -146004.04 
   62000    1299.1492    135.18796      2204118          147  0.007193656   -148845.87   -145771.09 
   62100    1277.3551   -128.33177      2204118          147  0.007193656   -148864.55   -145841.35 
   62200    1227.3702   -125.65101      2204118          147  0.007193656   -148915.39   -146010.49 
   62300    1229.6436   -21.780835      2204118          147  0.007193656   -149017.25   -146106.98 
   62400    1202.2837     65.90577      2204118          147  0.007193656   -149052.97   -146207.45 
   62500     1169.034    -68.65916      2204118          147  0.007193656   -149001.09   -146234.26 
   62600    1199.6117    17.291039      2204118          147  0.007193656   -148948.46   -146109.26 
   62700    1188.7775    39.121034      2204118          147  0.007193656   -148701.74   -145888.19 
   62800    1324.8245   -1.8314807      2204118          147  0.007193656   -149038.18   -145902.64 
   62900    1182.7073    154.83915      2204118          147  0.007193656   -148847.31   -146048.12 
   63000    1189.3417    36.231757      2204118          147  0.007193656   -148949.48   -146134.59 
   63100    1183.8105   -5.0957453      2204118          147  0.007193656   -148959.75   -146157.96 
   63200    1206.6086    60.225678      2204118          147  0.007193656   -148995.42   -146139.67 
   63300    1169.6268    71.025311      2204118          147  0.007193656   -148901.18   -146132.95 
   63400    1210.5965  0.051375149      2204118          147  0.007193656   -148935.19   -146069.99 
   63500    1211.7368    12.589608      2204118          147  0.007193656    -148888.7   -146020.81 
   63600    1221.7826    10.129424      2204118          147  0.007193656   -148897.61   -146005.94 
   63700    1143.4921    110.51758      2204118          147  0.007193656   -148842.08   -146135.71 
   63800    1183.1306    24.677162      2204118          147  0.007193656    -149037.6   -146237.41 
   63900    1224.6982    112.65309      2204118          147  0.007193656   -149135.43   -146236.86 
   64000    1211.7648    79.375659      2204118          147  0.007193656   -148869.02   -146001.06 
   64100    1300.3294   -51.639784      2204118          147  0.007193656   -148975.25   -145897.67 
   64200     1220.037   -145.02252      2204118          147  0.007193656   -148872.38   -145984.84 
   64300     1192.827   -19.310332      2204118          147  0.007193656   -148930.56   -146107.42 
   64400    1159.7618   -123.79292      2204118          147  0.007193656   -148931.49   -146186.61 
   64500    1235.3281    98.565499      2204118          147  0.007193656   -149182.62   -146258.89 
   64600    1148.0898    73.873804      2204118          147  0.007193656   -149128.21   -146410.95 
   64700    1141.7223   -80.694801      2204118          147  0.007193656   -149022.35   -146320.16 
   64800    1199.6399    -58.55269      2204118          147  0.007193656    -148964.6   -146125.33 
   64900    1290.5673   -182.24684      2204118          147  0.007193656    -149093.2   -146038.74 
   65000    1214.1262    82.425769      2204118          147  0.007193656   -148868.43   -145994.88 
   65100    1195.3713    80.836378      2204118          147  0.007193656   -148856.16      -146027 
   65200    1158.8995   -55.295622      2204118          147  0.007193656   -148946.39   -146203.55 
   65300    1162.0643   -79.501201      2204118          147  0.007193656   -149041.21   -146290.88 
   65400    1186.9032   -1.5542089      2204118          147  0.007193656   -149022.44   -146213.32 
   65500    1292.0929    139.71613      2204118          147  0.007193656   -149142.34   -146084.26 
   65600    1196.4742    35.915588      2204118          147  0.007193656   -148912.13   -146080.36 
   65700    1191.8184   -6.2964049      2204118          147  0.007193656   -148907.66   -146086.91 
   65800    1173.6694   -8.2050285      2204118          147  0.007193656   -148907.19   -146129.39 
   65900    1176.7171   -242.27185      2204118          147  0.007193656   -149074.15   -146289.14 
   66000    1202.4499   -112.16703      2204118          147  0.007193656   -149182.79   -146336.87 
   66100    1203.2283    156.61746      2204118          147  0.007193656   -148995.17   -146147.42 
   66200    1148.8301    80.072733      2204118          147  0.007193656   -148738.81   -146019.81 
   66300    1273.1522    154.67701      2204118          147  0.007193656   -149027.91   -146014.66 
   66400     1162.606   -102.19704      2204118          147  0.007193656   -148877.85   -146126.23 
   66500    1160.0679   -109.60865      2204118          147  0.007193656   -148933.41   -146187.81 
   66600    1204.5133   -160.34673      2204118          147  0.007193656   -149063.32   -146212.53 
   66700    1182.6889    13.090334      2204118          147  0.007193656   -148945.32   -146146.18 
   66800     1225.228    27.114688      2204118          147  0.007193656   -148896.66   -145996.84 
   66900    1239.2102    107.05478      2204118          147  0.007193656   -148939.84   -146006.92 
   67000    1201.1594    130.93637      2204118          147  0.007193656   -148985.29   -146142.43 
   67100    1174.9164   -171.69009      2204118          147  0.007193656    -149015.2   -146234.45 
   67200    1235.8891   -152.11819      2204118          147  0.007193656   -149117.23   -146192.17 
   67300    1217.1224    -61.68292      2204118          147  0.007193656   -149013.46   -146132.82 
   67400    1172.0901    138.09226      2204118          147  0.007193656   -148863.59   -146089.53 
   67500    1186.5133    41.776144      2204118          147  0.007193656   -148900.67   -146092.47 
   67600    1167.3793   -69.451354      2204118          147  0.007193656   -148854.14   -146091.23 
   67700     1217.741    51.182666      2204118          147  0.007193656   -148924.81   -146042.71 
   67800    1273.8917   -87.846148      2204118          147  0.007193656   -148845.82   -145830.82 
   67900    1281.7668    113.89511      2204118          147  0.007193656   -148890.07   -145856.43 
   68000    1191.9567    49.329631      2204118          147  0.007193656   -148878.72   -146057.64 
   68100    1245.6441    65.281805      2204118          147  0.007193656   -149116.47   -146168.33 
   68200    1133.6513   -119.29488      2204118          147  0.007193656   -148927.63   -146244.55 
   68300    1161.0707   -145.35521      2204118          147  0.007193656   -148965.27   -146217.29 
   68400    1229.4705   -151.90766      2204118          147  0.007193656   -148909.35   -145999.49 
   68500    1208.6183    175.71255      2204118          147  0.007193656   -148805.51      -145945 
   68600    1196.7569    82.724755      2204118          147  0.007193656   -148855.48   -146023.04 
   68700    1204.3105    53.998337      2204118          147  0.007193656   -148967.53   -146117.21 
   68800    1174.4403   -21.958753      2204118          147  0.007193656   -148944.48   -146164.85 
   68900    1126.3245   -140.28693      2204118          147  0.007193656   -148841.03   -146175.29 
   69000    1183.8553   -64.625085      2204118          147  0.007193656   -148923.22   -146121.31 
   69100    1244.9831   -79.985037      2204118          147  0.007193656    -148846.2   -145899.62 
   69200    1290.0756    180.31443      2204118          147  0.007193656   -148931.91   -145878.61 
   69300     1216.563    43.251856      2204118          147  0.007193656   -148948.94   -146069.63 
   69400    1254.2987   -61.905614      2204118          147  0.007193656    -149127.9   -146159.27 
   69500    1159.7973    36.372465      2204118          147  0.007193656   -148922.66    -146177.7 
   69600    1155.9109    78.414193      2204118          147  0.007193656   -148855.77      -146120 
   69700     1222.913   -51.690382      2204118          147  0.007193656   -148854.59   -145960.25 
   69800     1205.794    208.24065      2204118          147  0.007193656   -148756.37   -145902.54 
   69900    1258.5344    17.120919      2204118          147  0.007193656   -149092.07   -146113.42 
   70000    1188.2585   -28.800718      2204118          147  0.007193656   -148991.84   -146179.51 
   70100    1188.4813    35.548476      2204118          147  0.007193656   -148975.07   -146162.22 
   70200    1170.9337    -62.39924      2204118          147  0.007193656   -148986.19   -146214.87 
   70300    1171.1339    52.488104      2204118          147  0.007193656   -149035.77   -146263.98 
   70400    1165.2379   -90.115568      2204118          147  0.007193656   -149082.29   -146324.45 
   70500    1149.6719   -156.28687      2204118          147  0.007193656      -148919   -146197.99 
   70600    1222.5917   -104.61652      2204118          147  0.007193656   -148912.94   -146019.35 
   70700    1143.7588    45.680226      2204118          147  0.007193656   -148719.12   -146012.11 
   70800    1201.8445   -73.114969      2204118          147  0.007193656   -148944.06   -146099.58 
   70900    1188.8744    102.40331      2204118          147  0.007193656   -149035.57   -146221.79 
   71000    1171.8291    127.42117      2204118          147  0.007193656   -149180.22   -146406.78 
   71100    1151.7547    108.99365      2204118          147  0.007193656   -149086.05   -146360.12 
   71200    1150.7357   -131.56018      2204118          147  0.007193656   -148964.21   -146240.69 
   71300    1159.0218   -92.106587      2204118          147  0.007193656   -148867.29   -146124.16 
   71400    1253.6001   -11.205182      2204118          147  0.007193656   -149007.21   -146040.24 
   71500    1198.8197    25.849379      2204118          147  0.007193656   -148868.63   -146031.31 
   71600    1206.2775    64.125296      2204118          147  0.007193656   -149060.74   -146205.77 
   71700    1151.4637   -62.410049      2204118          147  0.007193656   -149037.08   -146311.83 
   71800    1205.6598    -157.9857      2204118          147  0.007193656    -149074.4   -146220.89 
   71900    1162.7769   -58.273857      2204118          147  0.007193656   -148817.88   -146065.86 
   72000    1226.8682    -48.70027      2204118          147  0.007193656   -148875.87   -145972.17 
   72100    1161.6853    152.12607      2204118          147  0.007193656   -148774.85   -146025.41 
   72200    1176.9528   -45.450421      2204118          147  0.007193656   -148915.93   -146130.37 
   72300    1239.9904   -60.030947      2204118          147  0.007193656   -149106.72   -146171.96 
   72400    1201.0422    52.806982      2204118          147  0.007193656   -149028.44   -146185.86 
   72500    1171.1847     -93.8163      2204118          147  0.007193656   -148874.57   -146102.66 
   72600    1268.8241    181.55875      2204118          147  0.007193656   -148959.13   -145956.12 
   72700    1224.3284    128.78607      2204118          147  0.007193656   -148867.68   -145969.99 
   72800    1250.8917   -44.397411      2204118          147  0.007193656   -149074.38   -146113.82 
   72900    1202.1141   -87.823424      2204118          147  0.007193656   -149044.94   -146199.82 
   73000    1111.3522   -144.53606      2204118          147  0.007193656   -148797.47   -146167.16 
   73100    1194.1902    40.591921      2204118          147  0.007193656   -148929.32   -146102.95 
   73200      1286.16    200.09454      2204118          147  0.007193656   -149114.47   -146070.43 
   73300    1186.2073    93.879545      2204118          147  0.007193656   -148921.08   -146113.61 
   73400    1218.8711   -31.714929      2204118          147  0.007193656   -149010.88    -146126.1 
   73500    1203.4176   -25.493221      2204118          147  0.007193656   -148979.16   -146130.95 
   73600    1218.9701   -101.44577      2204118          147  0.007193656   -149003.06   -146118.05 
   73700    1239.4883    37.414694      2204118          147  0.007193656   -149038.36   -146104.78 
   73800    1174.5559    83.773282      2204118          147  0.007193656    -148910.8   -146130.91 
   73900    1203.7704   -19.182767      2204118          147  0.007193656   -149002.74    -146153.7 
   74000    1144.3029     49.30338      2204118          147  0.007193656   -148879.33   -146171.03 
   74100    1260.8934    43.512847      2204118          147  0.007193656   -149060.46   -146076.23 
   74200    1195.4096    88.985214      2204118          147  0.007193656   -148803.95    -145974.7 
   74300    1239.7803    177.21836      2204118          147  0.007193656   -148957.39   -146023.12 
   74400    1190.7818   -19.973855      2204118          147  0.007193656   -149051.35   -146233.05 
   74500    1199.2373   -33.721647      2204118          147  0.007193656   -149098.88   -146260.57 
   74600    1160.8308   -102.84328      2204118          147  0.007193656   -148917.18   -146169.77 
   74700    1238.1495   -20.174894      2204118          147  0.007193656   -148899.64   -145969.24 
   74800    1220.2543   -27.919638      2204118          147  0.007193656   -148844.04   -145955.99 
   74900    1243.7425    38.929081      2204118          147  0.007193656   -148936.56   -145992.92 
   75000    1125.1142    84.150239      2204118          147  0.007193656   -148693.32   -146030.44 
[...]
  381700    1217.2453    62.540785      2204118          147  0.007193656    -148939.6   -146058.67 
  381800    1124.0849    94.374771      2204118          147  0.007193656    -148827.6   -146167.16 
  381900    1136.0211   -29.432982      2204118          147  0.007193656   -148997.96   -146309.27 
  382000    1191.1591    95.983941      2204118          147  0.007193656   -149080.56   -146261.37 
  382100    1266.2806   -52.617025      2204118          147  0.007193656   -148969.91   -145972.92 
  382200    1204.6911    4.1559562      2204118          147  0.007193656   -148794.18   -145942.96 
  382300    1223.1094    193.61827      2204118          147  0.007193656    -148946.1   -146051.29 
  382400    1177.3764    213.70549      2204118          147  0.007193656   -148973.17    -146186.6 
  382500    1214.6786    128.30235      2204118          147  0.007193656   -149085.63   -146210.78 
  382600     1256.169   -150.45638      2204118          147  0.007193656   -149079.12   -146106.07 
  382700    1220.7248    43.158334      2204118          147  0.007193656    -148765.3   -145876.14 
  382800    1233.9802    47.635306      2204118          147  0.007193656   -148826.85   -145906.31 
  382900    1252.6686    57.940647      2204118          147  0.007193656    -149011.5   -146046.73 
  383000    1209.7233    48.986873      2204118          147  0.007193656    -148980.3   -146117.17 
  383100    1174.2693   -57.291974      2204118          147  0.007193656   -148903.09   -146123.88 
  383200    1227.7821   -49.331473      2204118          147  0.007193656   -148982.14   -146076.27 
  383300     1301.607   -17.131944      2204118          147  0.007193656   -148962.73   -145882.13 
  383400    1239.5978    -14.58417      2204118          147  0.007193656   -148768.72   -145834.89 
  383500    1241.9439    127.70354      2204118          147  0.007193656   -148944.76   -146005.38 
  383600    1221.9184    34.651143      2204118          147  0.007193656   -149036.29    -146144.3 
  383700    1166.8608   -1.8538372      2204118          147  0.007193656   -148936.03   -146174.35 
  383800    1167.7246    196.55761      2204118          147  0.007193656   -148897.64   -146133.91 
  383900    1238.1326    28.886175      2204118          147  0.007193656   -149003.97   -146073.61 
  384000    1225.9809   -91.229127      2204118          147  0.007193656   -148873.48   -145971.87 
  384100    1212.4197   -125.05853      2204118          147  0.007193656   -148755.24   -145885.73 
  384200     1206.986   -77.712493      2204118          147  0.007193656   -148857.67   -146001.02 
  384300    1207.7512    6.2287168      2204118          147  0.007193656   -148997.88   -146139.42 
  384400    1187.2932    61.834786      2204118          147  0.007193656    -149018.4   -146208.35 
  384500    1210.9312    110.95203      2204118          147  0.007193656   -149069.99      -146204 
  384600    1195.7751   -200.88202      2204118          147  0.007193656    -148955.5   -146125.39 
  384700    1207.8259    81.757196      2204118          147  0.007193656   -148747.38   -145888.75 
  384800    1240.9459   -31.963169      2204118          147  0.007193656   -148760.13    -145823.1 
  384900    1225.4569    8.9919532      2204118          147  0.007193656   -148822.66   -145922.29 
  385000    1217.0154   -12.868881      2204118          147  0.007193656   -148947.48   -146067.09 
  385100    1203.3125   -71.558904      2204118          147  0.007193656   -148969.97   -146122.01 
  385200    1181.5451  -0.52928631      2204118          147  0.007193656   -148941.95   -146145.51 
  385300    1234.5075    99.768378      2204118          147  0.007193656   -148985.93   -146064.14 
  385400    1239.4303   -120.00083      2204118          147  0.007193656   -148812.65   -145879.21 
  385500    1261.2711   -31.893923      2204118          147  0.007193656   -148848.08   -145862.95 
  385600    1184.3803    8.1370736      2204118          147  0.007193656   -148874.06   -146070.92 
  385700    1173.0501   -90.330623      2204118          147  0.007193656   -148917.29   -146140.96 
  385800    1202.0637  -0.30846097      2204118          147  0.007193656   -148996.44   -146151.44 
  385900    1201.3706   -129.53519      2204118          147  0.007193656   -149011.83   -146168.47 
  386000    1170.1613     -30.7661      2204118          147  0.007193656   -148831.23   -146061.73 
  386100    1263.2159    41.913148      2204118          147  0.007193656   -148887.31   -145897.57 
  386200    1174.0811    136.76242      2204118          147  0.007193656   -148753.01   -145974.24 
  386300     1308.949   -133.85413      2204118          147  0.007193656   -149230.22   -146132.24 
  386400    1173.7183    65.658861      2204118          147  0.007193656   -148983.92   -146206.01 
  386500     1212.053   -196.43891      2204118          147  0.007193656   -149018.71   -146150.06 
  386600    1272.0182    44.976506      2204118          147  0.007193656   -149085.56   -146074.99 
  386700     1245.249    37.739982      2204118          147  0.007193656   -148961.54   -146014.33 
  386800    1188.9255     54.91275      2204118          147  0.007193656   -148876.54   -146062.63 
  386900    1167.9435   -156.26179      2204118          147  0.007193656   -148994.37   -146230.12 
  387000    1150.0724   -155.54549      2204118          147  0.007193656   -148985.43   -146263.48 
  387100    1240.4698    37.331514      2204118          147  0.007193656   -149083.13   -146147.23 
  387200    1250.8066   -87.391825      2204118          147  0.007193656   -148991.44   -146031.08 
  387300      1273.16    47.405041      2204118          147  0.007193656   -148855.18   -145841.91 
  387400    1294.7875    17.238251      2204118          147  0.007193656   -148773.86   -145709.41 
  387500    1265.8808    83.646688      2204118          147  0.007193656   -148906.43   -145910.39 
  387600    1195.2998   -63.074914      2204118          147  0.007193656   -148878.83   -146049.84 
  387700    1165.3615   -143.40909      2204118          147  0.007193656   -148887.96   -146129.83 
  387800    1233.6388    37.793451      2204118          147  0.007193656   -149114.46   -146194.73 
  387900    1149.6014    116.42641      2204118          147  0.007193656   -149021.42   -146300.59 
  388000    1154.5133   -69.450348      2204118          147  0.007193656   -149055.47   -146323.01 
  388100    1162.0301    61.971851      2204118          147  0.007193656   -148868.79   -146118.54 
  388200    1222.8727   -158.20316      2204118          147  0.007193656   -148881.91   -145987.66 
  388300    1262.9206    8.4478224      2204118          147  0.007193656   -148987.99   -145998.96 
  388400    1155.6995    10.801145      2204118          147  0.007193656   -148860.11   -146124.85 
  388500    1206.7386     114.1618      2204118          147  0.007193656   -149087.39   -146231.32 
  388600    1136.3315    193.96298      2204118          147  0.007193656   -148925.07   -146235.65 
  388700    1189.8548   -134.47944      2204118          147  0.007193656   -148983.62   -146167.52 
  388800    1177.4981   -84.174363      2204118          147  0.007193656   -148888.81   -146101.95 
  388900    1226.3505   -106.96534      2204118          147  0.007193656   -148968.96   -146066.48 
  389000    1171.7327    -15.41361      2204118          147  0.007193656   -148858.93   -146085.72 
  389100    1198.2705   -22.494294      2204118          147  0.007193656   -148940.44   -146104.42 
  389200    1243.3531   -76.401369      2204118          147  0.007193656    -149076.1   -146133.37 
  389300    1171.2753    76.819523      2204118          147  0.007193656   -148890.82   -146118.69 
  389400    1198.0033    -36.42621      2204118          147  0.007193656   -148939.26   -146103.87 
  389500    1168.5356   -29.970193      2204118          147  0.007193656    -148932.7   -146167.06 
  389600    1134.1229    147.60244      2204118          147  0.007193656   -148928.12   -146243.92 
  389700    1249.8069    92.297361      2204118          147  0.007193656   -149184.35   -146226.36 
  389800    1148.4969   -23.851168      2204118          147  0.007193656   -148820.38   -146102.16 
  389900    1201.5283   -82.246187      2204118          147  0.007193656   -148776.01   -145932.27 
  390000    1195.6875     53.40154      2204118          147  0.007193656   -148796.87   -145966.96 
  390100    1152.9368   -54.678699      2204118          147  0.007193656   -148781.48   -146052.75 
  390200    1171.0365    98.405875      2204118          147  0.007193656   -148866.95   -146095.39 
  390300    1234.3036     -42.4704      2204118          147  0.007193656   -149044.14   -146122.84 
  390400    1164.1311    18.965248      2204118          147  0.007193656   -148973.85   -146218.62 
  390500    1191.9532   -64.487978      2204118          147  0.007193656   -149182.09   -146361.02 
  390600    1195.7776   -6.4808231      2204118          147  0.007193656   -149250.64   -146420.52 
  390700    1200.6278   -24.920989      2204118          147  0.007193656   -149055.89   -146214.29 
  390800    1198.6596    94.267354      2204118          147  0.007193656   -148906.37   -146069.42 
  390900    1212.7176    56.423511      2204118          147  0.007193656   -148940.44   -146070.23 
  391000    1185.7138   -77.109137      2204118          147  0.007193656   -148937.96   -146131.66 
  391100    1207.3529   -117.80292      2204118          147  0.007193656    -149136.2   -146278.69 
  391200    1175.6372    94.717173      2204118          147  0.007193656   -149109.35   -146326.89 
  391300    1248.8153    111.47177      2204118          147  0.007193656   -149070.71   -146115.06 
  391400    1257.4331    197.00694      2204118          147  0.007193656   -148942.13   -145966.08 
  391500    1233.9703    2.0682114      2204118          147  0.007193656   -148918.73   -145998.22 
  391600    1187.8286   -108.38988      2204118          147  0.007193656   -148933.23   -146121.92 
  391700    1178.2025    -202.6355      2204118          147  0.007193656    -148997.6   -146209.07 
  391800    1184.1349   -8.5007384      2204118          147  0.007193656   -148954.71   -146152.14 
  391900     1160.205    32.022191      2204118          147  0.007193656   -148872.04   -146126.11 
  392000    1252.1493    223.28211      2204118          147  0.007193656   -148977.86   -146014.32 
  392100    1249.1929    67.360933      2204118          147  0.007193656   -148800.96   -145844.42 
  392200    1220.4503    -85.00094      2204118          147  0.007193656   -148788.92   -145900.41 
  392300     1254.981   -128.94986      2204118          147  0.007193656   -149035.39   -146065.15 
  392400    1259.5586    23.356586      2204118          147  0.007193656   -149117.57   -146136.49 
  392500    1191.1673    110.78918      2204118          147  0.007193656   -149016.92   -146197.71 
  392600    1204.6691   -31.826671      2204118          147  0.007193656    -149045.9   -146194.73 
  392700    1216.6414   -147.47415      2204118          147  0.007193656    -148883.3    -146003.8 
  392800    1185.0435   -48.056459      2204118          147  0.007193656   -148672.96   -145868.25 
  392900    1188.2923    62.265023      2204118          147  0.007193656   -148746.96   -145934.56 
  393000    1194.0997    52.838155      2204118          147  0.007193656   -148909.94   -146083.79 
  393100    1228.3312    -23.53442      2204118          147  0.007193656   -149032.37    -146125.2 
  393200    1216.9078    45.893794      2204118          147  0.007193656   -149035.19   -146155.06 
  393300     1213.582    19.689109      2204118          147  0.007193656   -149045.41   -146173.15 
  393400    1122.9382   -44.472737      2204118          147  0.007193656   -148884.16   -146226.43 
  393500    1234.5563    10.591208      2204118          147  0.007193656   -149037.56   -146115.65 
  393600    1164.9796    86.141701      2204118          147  0.007193656   -148706.73    -145949.5 
  393700    1258.5931    71.807871      2204118          147  0.007193656   -148915.85   -145937.06 
  393800    1178.3126   -84.908927      2204118          147  0.007193656    -148887.9   -146099.11 
  393900    1170.1385    124.88553      2204118          147  0.007193656   -148972.49   -146203.05 
  394000    1188.2868   -52.117363      2204118          147  0.007193656   -148979.58   -146167.19 
  394100    1173.0411    117.69391      2204118          147  0.007193656   -148874.55   -146098.24 
  394200    1254.4318    38.182625      2204118          147  0.007193656   -148930.65   -145961.71 
  394300    1233.2959   -58.326525      2204118          147  0.007193656   -148775.78   -145856.86 
  394400    1235.0759    24.174125      2204118          147  0.007193656    -148863.5   -145940.37 
  394500    1259.0367    73.953105      2204118          147  0.007193656   -149143.73   -146163.89 
  394600    1131.6864    -8.334034      2204118          147  0.007193656   -148908.88   -146230.44 
  394700    1201.0236    161.19647      2204118          147  0.007193656   -149045.92   -146203.38 
  394800    1213.4054    25.968137      2204118          147  0.007193656   -148926.66   -146054.82 
  394900    1215.5733   -26.380793      2204118          147  0.007193656   -148799.75   -145922.78 
  395000      1226.83    87.856762      2204118          147  0.007193656   -148833.16   -145929.54 
  395100    1194.9158   -175.07318      2204118          147  0.007193656   -149008.34   -146180.26 
  395200    1162.1141    121.69301      2204118          147  0.007193656   -149022.43   -146271.98 
  395300    1213.5194    62.461222      2204118          147  0.007193656   -149076.08   -146203.97 
  395400    1204.3972   -25.335962      2204118          147  0.007193656   -148915.93    -146065.4 
  395500    1174.3607   -44.125001      2204118          147  0.007193656   -148755.73   -145976.29 
  395600    1197.2766   -179.96913      2204118          147  0.007193656   -148895.19   -146061.52 
  395700    1159.7771   -69.973061      2204118          147  0.007193656   -149022.39   -146277.47 
  395800    1121.4658   -41.557471      2204118          147  0.007193656   -148947.22   -146292.98 
  395900    1228.6396    139.08003      2204118          147  0.007193656   -149079.25   -146171.35 
  396000    1213.6495     127.8332      2204118          147  0.007193656   -148925.99   -146053.56 
  396100    1211.0065   -18.331458      2204118          147  0.007193656   -148893.97    -146027.8 
  396200    1253.4061   -9.2787342      2204118          147  0.007193656   -149046.19   -146079.68 
  396300    1216.2982   -165.44809      2204118          147  0.007193656   -148995.53   -146116.84 
  396400    1152.3926    196.35001      2204118          147  0.007193656   -148865.51   -146138.07 
  396500    1205.6964   -44.003716      2204118          147  0.007193656   -149021.27   -146167.67 
  396600    1164.1578   -3.4578999      2204118          147  0.007193656   -149014.36   -146259.08 
  396700    1193.6033    80.457574      2204118          147  0.007193656   -149161.69   -146336.71 
  396800    1166.1094    91.527758      2204118          147  0.007193656   -149023.34   -146263.44 
  396900    1190.5437    58.352294      2204118          147  0.007193656   -148870.98   -146053.25 
  397000    1259.5238    54.049471      2204118          147  0.007193656   -148984.37   -146003.38 
  397100    1203.7862    -61.29719      2204118          147  0.007193656    -148934.6   -146085.52 
  397200    1199.4596    72.191457      2204118          147  0.007193656   -149044.28   -146205.44 
  397300    1190.3743   -55.784554      2204118          147  0.007193656   -149176.86   -146359.52 
  397400    1138.9423    21.042059      2204118          147  0.007193656    -149167.8   -146472.19 
  397500    1152.9618    305.71187      2204118          147  0.007193656   -148991.13   -146262.34 
  397600    1248.2294    10.198646      2204118          147  0.007193656   -149072.32   -146118.06 
  397700    1249.6115   -92.270721      2204118          147  0.007193656   -149003.04   -146045.51 
  397800     1281.621   -31.608759      2204118          147  0.007193656   -149034.44   -146001.14 
  397900    1209.1804   -37.905818      2204118          147  0.007193656   -148909.83   -146047.99 
  398000    1159.1059    68.965401      2204118          147  0.007193656   -148965.51   -146222.18 
  398100    1200.2395   -215.22991      2204118          147  0.007193656   -149097.39    -146256.7 
  398200    1140.4711    100.11166      2204118          147  0.007193656   -148905.88   -146206.65 
  398300    1217.8256    116.39626      2204118          147  0.007193656    -148885.2   -146002.89 
  398400    1226.0031   -13.642409      2204118          147  0.007193656   -148808.93   -145907.27 
  398500    1180.6833    32.471536      2204118          147  0.007193656   -148936.83   -146142.43 
  398600    1164.6672    111.85942      2204118          147  0.007193656   -149016.94   -146260.45 
  398700    1216.1088    19.035788      2204118          147  0.007193656    -149110.2   -146231.95 
  398800    1219.5013   -57.973001      2204118          147  0.007193656   -148999.65   -146113.38 
  398900     1166.047   -80.902955      2204118          147  0.007193656   -148743.56   -145983.81 
  399000    1168.4857   -63.968297      2204118          147  0.007193656   -148689.87   -145924.35 
  399100    1232.9385   -67.766069      2204118          147  0.007193656    -148940.4   -146022.33 
  399200    1240.5031    13.223288      2204118          147  0.007193656   -149142.38    -146206.4 
  399300    1202.3813   -39.208308      2204118          147  0.007193656   -149042.28   -146196.53 
  399400    1221.6991   -74.284836      2204118          147  0.007193656   -148988.28   -146096.81 
  399500     1231.276   -24.856124      2204118          147  0.007193656   -148843.81   -145929.67 
  399600    1244.2784   -153.16661      2204118          147  0.007193656   -148898.71    -145953.8 
  399700     1219.276   -94.359002      2204118          147  0.007193656   -148922.97   -146037.23 
  399800    1202.3383    70.002575      2204118          147  0.007193656   -148943.33   -146097.68 
  399900    1215.1885    131.19329      2204118          147  0.007193656   -149010.86    -146134.8 
  400000      1193.21    24.418823      2204118          147  0.007193656   -149032.28   -146208.23 
  400057    1227.8471    36.455164      2204118          147  0.007193656   -149159.65   -146253.63 
Loop time of 5411.62 on 16 procs for 400000 steps with 795 atoms

Performance: 1.597 ns/day, 15.032 hours/ns, 73.915 timesteps/s
99.9% CPU use with 16 MPI tasks x no OpenMP threads

MPI task timing breakdown:
Section |  min time  |  avg time  |  max time  |%varavg| %total
---------------------------------------------------------------
Pair    | 0.26859    | 1217       | 4424.7     |4405.3 | 22.49
Neigh   | 0.039531   | 3.6798     | 7.9888     | 189.9 |  0.07
Comm    | 0.71034    | 830.32     | 3268.4     |3857.0 | 15.34
Output  | 0.3748     | 0.40965    | 0.51531    |   4.8 |  0.01
Modify  | 944.45     | 3359       | 5409.3     |3592.3 | 62.07
Other   |            | 1.223      |            |       |  0.02

Nlocal:        49.6875 ave         209 max           0 min
Histogram: 12 0 0 0 0 0 0 0 0 4
Nghost:        159.812 ave         424 max           0 min
Histogram: 8 0 0 0 0 4 0 0 0 4
Neighs:        3055.69 ave       12846 max           0 min
Histogram: 12 0 0 0 0 0 0 0 0 4

Total # of neighbors = 48891
Ave neighs/atom = 61.498113
Neighbor list builds = 14395
Dangerous builds = 0

write_data graphene_single_layer_ReaxFF_795_C_temp_1200K.data
System init for write_data ...
Total wall time: 1:30:15
