
# System definition
read_data graphene_single_layer_x-45_y-45_795_C.data
Reading data file ...
  orthogonal box = (-51.000000 -51.000000 -51.000000) to (96.000000 96.000000 51.000000)
  2 by 4 by 2 MPI processor grid
  reading atoms ...
  795 atoms
  read_data CPU = 0.004 seconds

pair_style reax/c NULL
pair_coeff * * ffield.reax.cho C
Reading potential file ffield.reax.cho with DATE: 2011-02-18
fix qeq_reax all qeq/reax 1 0.0 10.0 1.0e-6 reax/c


# Minimization
timestep 0.25
min_style cg
thermo 100
thermo_style custom step temp press vol lx density pe etotal
dump 2 all custom 1000 graphene_single_layer_ReaxFF_795_C_temp_1300K.lammpstrj id type x y z
minimize 1.0e-6 1.0e-6 100 1000

CITE-CITE-CITE-CITE-CITE-CITE-CITE-CITE-CITE-CITE-CITE-CITE-CITE

Your simulation uses code contributions which should be cited:

- pair reaxff command:

@Article{Aktulga12,
 author = {H. M. Aktulga, J. C. Fogarty, S. A. Pandit, A. Y. Grama},
 title = {Parallel reactive molecular dynamics: Numerical methods and algorithmic techniques},
 journal = {Parallel Computing},
 year =    2012,
 volume =  38,
 pages =   {245--259}
}

- fix qeq/reaxff command:

@Article{Aktulga12,
 author = {H. M. Aktulga, J. C. Fogarty, S. A. Pandit, A. Y. Grama},
 title = {Parallel reactive molecular dynamics: Numerical methods and algorithmic techniques},
 journal = {Parallel Computing},
 year =    2012,
 volume =  38,
 pages =   {245--259}
}

CITE-CITE-CITE-CITE-CITE-CITE-CITE-CITE-CITE-CITE-CITE-CITE-CITE

WARNING: Using 'neigh_modify every 1 delay 0 check yes' setting during minimization (../min.cpp:188)
Neighbor list info ...
  update every 1 steps, delay 0 steps, check yes
  max neighbors/atom: 10000, page size: 100000
  master list distance cutoff = 10.4
  ghost atom cutoff = 10.4
  binsize = 5.2, bins = 29 29 20
  2 neighbor lists, perpetual/occasional/extra = 2 0 0
  (1) pair reax/c, perpetual
      attributes: half, newton off, ghost
      pair build: half/bin/newtoff/ghost
      stencil: full/ghost/bin/3d
      bin: standard
  (2) fix qeq/reax, perpetual, copy from (1)
      attributes: half, newton off, ghost
      pair build: copy
      stencil: none
      bin: none
Per MPI rank memory allocation (min/avg/max) = 7.965 | 10.90 | 14.56 Mbytes
Step Temp Press Volume Lx Density PotEng TotEng 
       0            0    4589.6155      2204118          147  0.007193656   -142445.78   -142445.78 
      57            0    1294.9092      2204118          147  0.007193656   -150031.46   -150031.46 
Loop time of 3.71147 on 16 procs for 57 steps with 795 atoms

99.9% CPU use with 16 MPI tasks x no OpenMP threads

Minimization stats:
  Stopping criterion = energy tolerance
  Energy initial, next-to-last, final = 
     -142445.777810412  -150031.434465826  -150031.460524184
  Force two-norm initial, final = 2416.1570 1787.6736
  Force max component initial, final = 272.51119 337.29483
  Final line search alpha, max atom move = 0.00017977701 0.060637855
  Iterations, force evaluations = 57 237

MPI task timing breakdown:
Section |  min time  |  avg time  |  max time  |%varavg| %total
---------------------------------------------------------------
Pair    | 0.00022008 | 0.734      | 2.5947     | 106.8 | 19.78
Neigh   | 2.7811e-05 | 0.0015855  | 0.0033418  |   3.9 |  0.04
Comm    | 0.00040827 | 0.47519    | 1.8728     |  93.6 | 12.80
Output  | 0          | 0          | 0          |   0.0 |  0.00
Modify  | 1.0862     | 1.0895     | 1.0921     |   0.2 | 29.36
Other   |            | 1.411      |            |       | 38.02

Nlocal:        49.6875 ave         209 max           0 min
Histogram: 12 0 0 0 0 0 0 0 0 4
Nghost:        162.812 ave         432 max           0 min
Histogram: 8 0 0 0 0 4 0 0 0 4
Neighs:        3113.44 ave       13116 max           0 min
Histogram: 12 0 0 0 0 0 0 0 0 4

Total # of neighbors = 49815
Ave neighs/atom = 62.660377
Neighbor list builds = 6
Dangerous builds = 0

fix 1 all nvt temp 1300.0 1300.0 $(100.0*dt)
fix 1 all nvt temp 1300.0 1300.0 25
run 400000
Per MPI rank memory allocation (min/avg/max) = 6.841 | 9.777 | 13.44 Mbytes
Step Temp Press Volume Lx Density PotEng TotEng 
      57            0    1294.9092      2204118          147  0.007193656   -150031.46   -150031.46 
     100    121.51451     1524.202      2204118          147  0.007193656   -150304.18   -150016.59 
     200    296.20844   -717.53383      2204118          147  0.007193656   -150480.78   -149779.72 
     300    350.88687    -849.4269      2204118          147  0.007193656   -150321.32   -149490.85 
     400    455.53693   -859.75561      2204118          147  0.007193656   -150134.78   -149056.63 
     500    697.29407    550.71054      2204118          147  0.007193656   -150082.09   -148431.76 
     600    687.30015    1110.2401      2204118          147  0.007193656   -149407.06   -147780.39 
     700    953.68606   -329.15885      2204118          147  0.007193656   -149186.66   -146929.51 
     800    957.09704    -844.0533      2204118          147  0.007193656   -148365.91   -146100.69 
     900    1095.7353   -847.26181      2204118          147  0.007193656   -147839.03   -145245.69 
    1000    1633.7298   -443.77879      2204118          147  0.007193656   -148324.43   -144457.78 
    1100    1423.4984    661.36922      2204118          147  0.007193656   -148391.37   -145022.29 
    1200    1011.8476    1511.2503      2204118          147  0.007193656   -147862.45   -145467.65 
    1300    1403.2065     3.513049      2204118          147  0.007193656   -148342.97   -145021.91 
    1400    1412.9007   -491.80223      2204118          147  0.007193656   -148136.67   -144792.67 
    1500    1275.4098   -587.18214      2204118          147  0.007193656   -147963.03   -144944.43 
    1600    1397.1959   -203.87215      2204118          147  0.007193656   -148496.24   -145189.41 
    1700     1176.386    395.31819      2204118          147  0.007193656   -148428.68   -145644.46 
    1800    1091.9742    1101.3273      2204118          147  0.007193656   -148271.05    -145686.6 
    1900    1423.7877   -337.99635      2204118          147  0.007193656   -148509.55   -145139.78 
    2000    1342.7357   -776.60935      2204118          147  0.007193656   -148081.69   -144903.75 
    2100    1308.0158   -625.54079      2204118          147  0.007193656   -148079.61   -144983.85 
    2200     1345.787   -352.18907      2204118          147  0.007193656   -148264.45   -145079.29 
    2300    1348.4549     166.1125      2204118          147  0.007193656   -148581.79   -145390.32 
    2400    1098.4312    1377.7499      2204118          147  0.007193656   -148330.89   -145731.16 
    2500    1360.6287    610.01566      2204118          147  0.007193656   -148670.47   -145450.18 
    2600    1408.3081   -410.74294      2204118          147  0.007193656   -148639.45   -145306.32 
    2700    1255.0594   -563.13501      2204118          147  0.007193656   -148550.86   -145580.43 
    2800    1210.5134   -530.73669      2204118          147  0.007193656   -148444.91   -145579.91 
    2900    1365.9437   -247.82244      2204118          147  0.007193656   -148490.96   -145258.09 
    3000    1313.2734    533.68694      2204118          147  0.007193656   -148148.85   -145040.64 
    3100    1398.4931    432.30899      2204118          147  0.007193656   -148267.11   -144957.21 
    3200    1471.2706   -293.34758      2204118          147  0.007193656   -148789.42   -145307.27 
    3300    1245.5858   -363.61036      2204118          147  0.007193656   -148778.57   -145830.56 
    3400    1222.1631   -196.87318      2204118          147  0.007193656   -148856.41   -145963.84 
    3500    1292.8915    232.14327      2204118          147  0.007193656   -148766.79   -145706.83 
    3600    1216.9581    710.58252      2204118          147  0.007193656   -148195.32   -145315.07 
    3700    1500.1286     510.4555      2204118          147  0.007193656   -148438.99   -144888.54 
    3800    1439.0535   -393.95088      2204118          147  0.007193656   -148524.43   -145118.53 
    3900     1183.898   -468.63092      2204118          147  0.007193656   -148469.32   -145667.31 
    4000    1243.0543   -259.34352      2204118          147  0.007193656   -148794.19   -145852.17 
    4100    1248.1118    100.27055      2204118          147  0.007193656   -148652.79    -145698.8 
    4200    1299.2906    268.47675      2204118          147  0.007193656   -148422.31    -145347.2 
    4300    1358.2368   -33.949961      2204118          147  0.007193656    -148286.4   -145071.78 
    4400    1399.4263   -440.86338      2204118          147  0.007193656   -148405.55   -145093.44 
    4500    1318.6661   -379.87371      2204118          147  0.007193656   -148543.45   -145422.48 
    4600    1229.9768   -91.627987      2204118          147  0.007193656      -148596   -145684.94 
    4700    1219.9812    308.92966      2204118          147  0.007193656   -148626.04   -145738.63 
    4800    1259.2775    607.18662      2204118          147  0.007193656   -148508.83   -145528.42 
    4900     1444.084     222.9849      2204118          147  0.007193656    -148655.7    -145237.9 
    5000    1357.9669   -303.49263      2204118          147  0.007193656   -148542.25   -145328.27 
    5100    1272.9678   -308.25065      2204118          147  0.007193656    -148620.8   -145607.98 
    5200    1236.6992   -402.50869      2204118          147  0.007193656   -148562.47    -145635.5 
    5300    1377.9474   -53.501176      2204118          147  0.007193656   -148682.48   -145421.21 
    5400    1345.4593    438.58983      2204118          147  0.007193656   -148405.96   -145221.58 
    5500    1327.1591    32.802091      2204118          147  0.007193656   -148319.33   -145178.26 
    5600    1377.4827    -137.6533      2204118          147  0.007193656   -148590.91   -145330.73 
    5700    1274.5754   -228.25385      2204118          147  0.007193656   -148605.94   -145589.32 
    5800    1220.4095   -18.063244      2204118          147  0.007193656   -148670.91   -145782.49 
    5900    1250.2014    80.956539      2204118          147  0.007193656   -148653.34   -145694.41 
    6000    1286.6033    271.86919      2204118          147  0.007193656   -148462.86   -145417.78 
    6100    1400.6867    262.95583      2204118          147  0.007193656   -148564.78   -145249.69 
    6200    1315.1279    4.4632367      2204118          147  0.007193656   -148494.65   -145382.05 
    6300    1264.6253    -220.2468      2204118          147  0.007193656   -148638.65   -145645.58 
    6400    1198.7541   -95.169335      2204118          147  0.007193656   -148511.51   -145674.35 
    6500    1301.7182   -67.645828      2204118          147  0.007193656    -148510.4   -145429.54 
    6600    1397.3643    303.04249      2204118          147  0.007193656   -148575.06   -145267.83 
    6700    1322.7392   -147.42551      2204118          147  0.007193656   -148390.45   -145259.84 
    6800    1354.4434   -287.14727      2204118          147  0.007193656   -148649.94   -145444.29 
    6900    1341.9235   -182.90572      2204118          147  0.007193656   -148806.45   -145630.43 
    7000    1196.3604    73.789916      2204118          147  0.007193656   -148522.63   -145691.13 
    7100    1253.9926    444.19034      2204118          147  0.007193656   -148513.86   -145545.96 
    7200    1327.2189    491.80031      2204118          147  0.007193656   -148514.22   -145373.01 
    7300    1372.6806   -87.551915      2204118          147  0.007193656   -148631.64   -145382.83 
    7400    1235.7494    -422.7922      2204118          147  0.007193656   -148472.97   -145548.25 
    7500    1313.9548   -382.61568      2204118          147  0.007193656    -148753.3   -145643.48 
    7600    1272.2708   -174.83858      2204118          147  0.007193656   -148581.15   -145569.99 
    7700    1335.0101    147.79968      2204118          147  0.007193656   -148591.85    -145432.2 
    7800    1264.1184    162.08417      2204118          147  0.007193656   -148456.05   -145464.18 
    7900    1242.7267    76.764672      2204118          147  0.007193656    -148511.5   -145570.26 
    8000    1280.3049   -63.705556      2204118          147  0.007193656   -148681.64   -145651.46 
    8100    1233.7351   -94.268579      2204118          147  0.007193656   -148776.56    -145856.6 
    8200    1181.9479   -10.849371      2204118          147  0.007193656   -148635.28   -145837.89 
    8300    1209.9344    161.28451      2204118          147  0.007193656   -148491.71   -145628.08 
    8400     1286.695    214.42395      2204118          147  0.007193656   -148561.99   -145516.68 
    8500    1285.3597   -19.100033      2204118          147  0.007193656   -148458.23   -145416.09 
    8600    1352.5618    102.94663      2204118          147  0.007193656   -148552.46   -145351.27 
    8700    1297.1813   -91.602929      2204118          147  0.007193656   -148644.79   -145574.67 
    8800     1194.485   -65.575764      2204118          147  0.007193656   -148442.18   -145615.11 
    8900    1273.1699   -137.67876      2204118          147  0.007193656   -148467.49    -145454.2 
    9000    1342.0525    19.909682      2204118          147  0.007193656   -148533.55   -145357.23 
    9100    1350.0764   -96.559755      2204118          147  0.007193656   -148590.23   -145394.92 
    9200    1277.6668    8.4231649      2204118          147  0.007193656   -148568.96   -145545.02 
    9300    1319.9939    36.505387      2204118          147  0.007193656   -148897.31    -145773.2 
    9400     1264.781    186.32356      2204118          147  0.007193656   -148688.65   -145695.21 
    9500    1264.2667    208.70723      2204118          147  0.007193656   -148488.83   -145496.61 
    9600      1284.86     41.06707      2204118          147  0.007193656   -148467.54   -145426.58 
    9700    1347.7387    170.05243      2204118          147  0.007193656   -148609.97   -145420.19 
    9800    1238.1929   -111.09781      2204118          147  0.007193656   -148495.47   -145564.96 
    9900    1198.8454    160.18943      2204118          147  0.007193656   -148556.55   -145719.17 
   10000    1302.3502    -35.82822      2204118          147  0.007193656   -148755.54   -145673.18 
   10100    1281.5866   -144.74502      2204118          147  0.007193656   -148563.59   -145530.38 
   10200    1277.3168    24.091252      2204118          147  0.007193656   -148489.02   -145465.91 
   10300    1315.1811     48.15871      2204118          147  0.007193656   -148544.34   -145431.62 
   10400    1266.6948   -108.28895      2204118          147  0.007193656   -148475.48   -145477.51 
   10500    1240.1079    218.51941      2204118          147  0.007193656   -148637.33   -145702.29 
   10600    1244.2638     116.0583      2204118          147  0.007193656    -148668.4   -145723.52 
   10700     1254.394   -44.629528      2204118          147  0.007193656   -148518.83   -145549.98 
   10800    1340.0839   -36.877779      2204118          147  0.007193656   -148615.48   -145443.82 
   10900    1332.8597     61.61208      2204118          147  0.007193656    -148612.3   -145457.74 
   11000    1296.6722    144.24591      2204118          147  0.007193656   -148686.74   -145617.82 
   11100    1220.7048    179.98243      2204118          147  0.007193656   -148616.39   -145727.27 
   11200    1214.9582   -291.11143      2204118          147  0.007193656    -148571.9   -145696.39 
   11300    1296.7993   -203.68292      2204118          147  0.007193656   -148642.22      -145573 
   11400     1307.366   -157.04393      2204118          147  0.007193656   -148577.55   -145483.33 
   11500     1330.847    -137.7917      2204118          147  0.007193656    -148565.6    -145415.8 
   11600    1370.6099    83.229857      2204118          147  0.007193656   -148626.21    -145382.3 
   11700    1282.4254    67.771589      2204118          147  0.007193656   -148664.95   -145629.76 
   11800    1205.4077    149.62106      2204118          147  0.007193656   -148546.78   -145693.86 
   11900    1342.5953    39.380266      2204118          147  0.007193656    -148714.1    -145536.5 
   12000    1369.1067   -146.09814      2204118          147  0.007193656   -148667.09   -145426.74 
   12100    1279.1373    26.960043      2204118          147  0.007193656   -148484.37   -145456.95 
   12200    1296.8123       38.854      2204118          147  0.007193656    -148645.3   -145576.05 
   12300    1272.6229    129.46736      2204118          147  0.007193656   -148794.22   -145782.22 
   12400    1227.4372   -20.065059      2204118          147  0.007193656   -148763.82   -145858.76 
   12500    1252.1061   -219.98977      2204118          147  0.007193656   -148522.73   -145559.29 
   12600    1329.3418   -42.156473      2204118          147  0.007193656    -148577.1   -145430.86 
   12700    1329.1472    101.34775      2204118          147  0.007193656   -148505.58   -145359.81 
   12800    1330.1607    181.72167      2204118          147  0.007193656   -148576.41   -145428.23 
   12900    1276.0127    57.422131      2204118          147  0.007193656   -148644.75   -145624.73 
   13000     1233.066   -117.59846      2204118          147  0.007193656   -148573.48    -145655.1 
   13100    1276.2956   -187.53385      2204118          147  0.007193656   -148570.23   -145549.54 
   13200    1289.6374   -72.889702      2204118          147  0.007193656   -148469.53   -145417.27 
   13300    1382.5445   -3.1159564      2204118          147  0.007193656   -148684.16   -145412.01 
   13400    1272.9047   -19.166075      2204118          147  0.007193656   -148479.22   -145466.56 
   13500    1325.4679    22.427059      2204118          147  0.007193656    -148646.3   -145509.23 
   13600    1307.1625   -99.950619      2204118          147  0.007193656    -148669.3   -145575.55 
   13700    1223.7091   -230.00274      2204118          147  0.007193656   -148429.74   -145533.51 
   13800     1341.788   -193.04824      2204118          147  0.007193656   -148484.28   -145308.59 
   13900    1357.8557    25.877903      2204118          147  0.007193656   -148467.31   -145253.59 
   14000     1332.691    47.021377      2204118          147  0.007193656   -148590.12   -145435.95 
   14100    1267.2696    229.40397      2204118          147  0.007193656   -148534.23   -145534.91 
   14200    1326.0126     137.2574      2204118          147  0.007193656   -148681.63   -145543.27 
   14300    1244.7145   -78.647638      2204118          147  0.007193656   -148415.63   -145469.69 
   14400    1361.8774    -55.20107      2204118          147  0.007193656   -148487.04    -145263.8 
   14500     1337.785   -91.916097      2204118          147  0.007193656   -148339.26   -145173.04 
   14600     1367.904   -62.007701      2204118          147  0.007193656   -148646.64   -145409.14 
   14700    1215.9809    42.617036      2204118          147  0.007193656   -148373.69   -145495.75 
   14800    1367.2175    48.629537      2204118          147  0.007193656   -148704.79   -145468.91 
   14900    1237.1794   -135.14155      2204118          147  0.007193656   -148374.84   -145446.73 
   15000    1385.6951    7.2924898      2204118          147  0.007193656   -148605.53   -145325.92 
   15100    1308.3228   -77.776614      2204118          147  0.007193656    -148375.3   -145278.81 
   15200    1336.7388    290.53927      2204118          147  0.007193656   -148593.46   -145429.71 
   15300      1276.77    25.029306      2204118          147  0.007193656   -148593.01    -145571.2 
   15400    1275.1377   -8.9137612      2204118          147  0.007193656   -148531.31   -145513.36 
   15500    1338.6558   -45.545997      2204118          147  0.007193656   -148509.53   -145341.25 
   15600    1342.5628    -278.0124      2204118          147  0.007193656   -148454.02   -145276.49 
   15700     1363.352   -12.175693      2204118          147  0.007193656   -148546.91   -145320.18 
   15800    1281.7181    64.470331      2204118          147  0.007193656   -148609.28   -145575.75 
   15900    1241.3935    111.72283      2204118          147  0.007193656   -148606.82   -145668.74 
   16000    1305.9931    -20.28556      2204118          147  0.007193656   -148621.95   -145530.97 
   16100    1331.5365   -327.04757      2204118          147  0.007193656   -148529.47   -145378.04 
   16200    1381.1732   -238.16782      2204118          147  0.007193656   -148541.02   -145272.11 
   16300    1355.9272   -4.4921495      2204118          147  0.007193656   -148548.28   -145339.12 
   16400     1330.207    228.83574      2204118          147  0.007193656   -148701.11   -145552.82 
   16500    1263.2916     326.9733      2204118          147  0.007193656   -148570.81   -145580.89 
   16600    1310.4606    81.257956      2204118          147  0.007193656   -148613.97   -145512.42 
   16700    1275.3186   -72.807862      2204118          147  0.007193656   -148432.22   -145413.84 
   16800     1392.259   -42.899897      2204118          147  0.007193656   -148487.47   -145192.32 
   16900     1365.741   -21.478506      2204118          147  0.007193656   -148435.23   -145202.85 
   17000    1283.6924   -106.45702      2204118          147  0.007193656   -148341.66   -145303.46 
   17100    1327.2942    143.76147      2204118          147  0.007193656   -148526.59    -145385.2 
   17200    1271.2273   -6.1801598      2204118          147  0.007193656   -148501.02   -145492.32 
   17300    1257.3611   -120.62555      2204118          147  0.007193656   -148540.62   -145564.74 
   17400      1260.76    12.063797      2204118          147  0.007193656   -148485.02    -145501.1 
   17500    1326.4797     93.26151      2204118          147  0.007193656   -148483.69   -145344.23 
   17600    1371.6013    3.4365221      2204118          147  0.007193656   -148518.94   -145272.69 
   17700    1290.9508    158.33187      2204118          147  0.007193656   -148495.68    -145440.3 
   17800      1323.83    140.63562      2204118          147  0.007193656   -148693.65   -145560.46 
   17900    1273.7218   -101.67573      2204118          147  0.007193656   -148580.03   -145565.43 
   18000    1344.5499   -142.17268      2204118          147  0.007193656   -148669.08   -145486.85 
   18100    1262.5661    26.902497      2204118          147  0.007193656   -148488.98   -145500.79 
   18200    1327.4835    61.209125      2204118          147  0.007193656   -148653.36   -145511.52 
   18300    1237.1408    -12.31106      2204118          147  0.007193656   -148459.77   -145531.75 
   18400    1318.7889   -201.60072      2204118          147  0.007193656    -148612.4   -145491.14 
   18500    1336.2132   -178.73713      2204118          147  0.007193656   -148626.23   -145463.73 
   18600    1387.1813   -187.33335      2204118          147  0.007193656   -148574.19   -145291.06 
   18700    1379.2009    151.53022      2204118          147  0.007193656   -148456.78   -145192.54 
   18800    1353.4979    235.39456      2204118          147  0.007193656    -148601.5   -145398.09 
   18900    1369.6543    81.436453      2204118          147  0.007193656   -148763.02   -145521.37 
   19000    1312.2583   -125.29482      2204118          147  0.007193656   -148653.86   -145548.06 
   19100    1287.6877   -220.06581      2204118          147  0.007193656   -148521.27   -145473.62 
   19200    1351.7751    8.7819923      2204118          147  0.007193656   -148484.45   -145285.12 
   19300    1340.8351    39.065235      2204118          147  0.007193656   -148522.38   -145348.95 
   19400     1303.213   -13.493761      2204118          147  0.007193656   -148554.95   -145470.55 
   19500    1356.7871    91.938267      2204118          147  0.007193656   -148723.27   -145512.08 
   19600    1271.4074    -228.0585      2204118          147  0.007193656   -148509.85   -145500.73 
   19700     1319.538   -140.55031      2204118          147  0.007193656   -148501.73   -145378.69 
   19800    1335.5084   -60.572375      2204118          147  0.007193656    -148419.5   -145258.67 
   19900    1272.4361    72.263136      2204118          147  0.007193656   -148468.62   -145457.07 
   20000    1246.6204    146.53897      2204118          147  0.007193656   -148538.33   -145587.88 
   20100    1290.6926   -32.894819      2204118          147  0.007193656   -148641.04   -145586.27 
   20200    1305.5262   -137.70375      2204118          147  0.007193656   -148585.28   -145495.41 
   20300    1275.4712   -45.832518      2204118          147  0.007193656   -148326.04    -145307.3 
   20400     1341.425    -55.23771      2204118          147  0.007193656   -148477.07   -145302.23 
   20500    1271.7226   -120.65019      2204118          147  0.007193656   -148574.29   -145564.43 
   20600    1303.7913    30.767006      2204118          147  0.007193656   -148691.93   -145606.16 
   20700    1314.4378    2.8607309      2204118          147  0.007193656   -148610.22   -145499.25 
   20800    1249.9896   -122.10349      2204118          147  0.007193656   -148327.02   -145368.59 
   20900    1325.6763   -82.894403      2204118          147  0.007193656    -148439.4   -145301.84 
   21000    1327.5532   -35.345203      2204118          147  0.007193656   -148627.48   -145485.48 
   21100    1269.8262    34.327167      2204118          147  0.007193656   -148602.46   -145597.09 
   21200    1312.5018    59.703374      2204118          147  0.007193656   -148641.75   -145535.36 
   21300     1319.546    325.50689      2204118          147  0.007193656   -148572.88   -145449.82 
   21400    1349.2603    118.32268      2204118          147  0.007193656   -148565.55   -145372.18 
   21500    1290.8792    31.899937      2204118          147  0.007193656    -148314.5    -145259.3 
   21600    1362.5518    7.5103705      2204118          147  0.007193656   -148485.33   -145260.49 
   21700    1339.6333    -71.64291      2204118          147  0.007193656   -148609.04   -145438.45 
   21800    1253.9785   -142.02958      2204118          147  0.007193656   -148496.79   -145528.92 
   21900    1270.0867    132.96882      2204118          147  0.007193656   -148516.49   -145510.49 
   22000    1291.1168   -12.599598      2204118          147  0.007193656   -148508.81   -145453.05 
   22100    1287.6113   -102.04606      2204118          147  0.007193656   -148384.62   -145337.14 
   22200    1405.0625    59.507873      2204118          147  0.007193656   -148579.79   -145254.34 
   22300    1311.8792    71.958838      2204118          147  0.007193656   -148507.92   -145403.01 
   22400    1292.5882    115.36194      2204118          147  0.007193656   -148648.73   -145589.48 
   22500    1253.7606    171.22595      2204118          147  0.007193656    -148546.9   -145579.54 
   22600    1305.6857     51.37177      2204118          147  0.007193656   -148591.94   -145501.69 
   22700    1343.1429    29.026631      2204118          147  0.007193656   -148560.56   -145381.66 
   22800    1355.9921    35.324466      2204118          147  0.007193656   -148474.83   -145265.52 
   22900    1387.7378   -127.07774      2204118          147  0.007193656   -148421.43   -145136.98 
   23000    1327.3569    52.668402      2204118          147  0.007193656   -148372.61   -145231.08 
   23100    1360.2886   -119.09604      2204118          147  0.007193656   -148669.75   -145450.27 
   23200    1257.4597    115.57199      2204118          147  0.007193656   -148488.42   -145512.31 
   23300    1270.8085   0.21743903      2204118          147  0.007193656   -148557.75   -145550.05 
   23400     1253.324   -19.683549      2204118          147  0.007193656   -148529.27   -145562.95 
   23500    1327.6566   -98.395475      2204118          147  0.007193656   -148552.22   -145409.97 
   23600       1317.1    79.515653      2204118          147  0.007193656    -148385.4   -145268.14 
   23700    1415.4189    164.34841      2204118          147  0.007193656      -148666   -145316.04 
   23800    1287.7983    117.98571      2204118          147  0.007193656   -148590.24   -145542.33 
   23900    1290.7639    42.800405      2204118          147  0.007193656   -148637.31   -145582.38 
   24000    1292.4898   -45.226019      2204118          147  0.007193656   -148568.84   -145509.82 
   24100    1330.0153   -127.84169      2204118          147  0.007193656   -148545.13   -145397.29 
   24200    1260.4511   -115.73328      2204118          147  0.007193656   -148280.84   -145297.65 
   24300    1377.9852   -170.54333      2204118          147  0.007193656   -148421.77    -145160.4 
   24400    1293.2843   -41.736452      2204118          147  0.007193656   -148264.09   -145203.19 
   24500    1356.2122     141.2361      2204118          147  0.007193656   -148627.09   -145417.26 
   24600    1299.4919    -102.8237      2204118          147  0.007193656   -148600.77   -145525.18 
   24700    1293.7631    68.576181      2204118          147  0.007193656   -148623.93    -145561.9 
   24800    1267.8817    118.37194      2204118          147  0.007193656   -148625.34   -145624.56 
   24900    1284.9025     171.2705      2204118          147  0.007193656    -148742.8   -145701.74 
   25000     1230.978    24.647941      2204118          147  0.007193656   -148522.01   -145608.57 
   25100    1352.2784    33.865761      2204118          147  0.007193656   -148608.99   -145408.47 
   25200    1256.4102   -94.556551      2204118          147  0.007193656   -148321.61   -145347.99 
   25300    1326.6374   -190.70687      2204118          147  0.007193656    -148545.9   -145406.07 
   25400    1282.9044   -45.150035      2204118          147  0.007193656    -148667.6   -145631.27 
   25500    1276.9599    24.125761      2204118          147  0.007193656   -148681.16    -145658.9 
   25600    1254.4043    60.752424      2204118          147  0.007193656   -148523.18    -145554.3 
   25700    1296.3824   -106.73479      2204118          147  0.007193656   -148532.65   -145464.42 
   25800    1335.8801    52.705237      2204118          147  0.007193656   -148546.45   -145384.74 
   25900    1296.9648   -87.985806      2204118          147  0.007193656   -148540.51    -145470.9 
   26000    1225.6335    82.056667      2204118          147  0.007193656   -148552.97   -145652.18 
   26100    1212.5487    83.598036      2204118          147  0.007193656   -148522.34   -145652.52 
   26200    1392.8589     317.5805      2204118          147  0.007193656   -148776.84   -145480.27 
   26300    1289.9587   -65.807354      2204118          147  0.007193656   -148414.72    -145361.7 
   26400    1348.3542    -149.5533      2204118          147  0.007193656   -148590.84    -145399.6 
   26500    1328.9619   -74.632938      2204118          147  0.007193656   -148578.59   -145433.25 
   26600    1279.9137   -13.515673      2204118          147  0.007193656   -148480.57   -145451.31 
   26700    1333.9241   -24.632991      2204118          147  0.007193656   -148640.84   -145483.76 
   26800    1249.5982    151.18591      2204118          147  0.007193656   -148645.24   -145687.73 
   26900     1244.919   -59.020309      2204118          147  0.007193656   -148739.09   -145792.66 
   27000    1252.2702    15.871403      2204118          147  0.007193656   -148662.26   -145698.43 
   27100    1273.6888   -55.995577      2204118          147  0.007193656   -148617.21   -145602.69 
   27200    1271.0123    30.628702      2204118          147  0.007193656   -148496.12   -145487.94 
   27300    1327.1377    148.57577      2204118          147  0.007193656   -148552.26   -145411.24 
   27400    1345.5621    200.75538      2204118          147  0.007193656   -148563.69   -145379.06 
   27500    1329.4988   -24.387489      2204118          147  0.007193656   -148704.78   -145558.17 
   27600    1230.6733   -119.79113      2204118          147  0.007193656   -148608.25   -145695.54 
   27700    1227.2784   -254.81844      2204118          147  0.007193656   -148558.79   -145654.11 
   27800    1284.8738   -11.579685      2204118          147  0.007193656   -148501.06   -145460.07 
   27900    1288.3897    107.15824      2204118          147  0.007193656   -148453.03   -145403.71 
   28000    1278.1027    137.19994      2204118          147  0.007193656   -148474.16   -145449.19 
   28100    1347.0108    70.966145      2204118          147  0.007193656   -148717.66    -145529.6 
   28200    1275.2275   -106.89373      2204118          147  0.007193656   -148761.98   -145743.82 
   28300     1187.221    51.447894      2204118          147  0.007193656   -148636.93   -145827.06 
   28400     1312.575    149.31389      2204118          147  0.007193656   -148827.68   -145721.12 
   28500    1250.7551    91.598428      2204118          147  0.007193656   -148553.67   -145593.43 
   28600    1335.0633    145.51033      2204118          147  0.007193656   -148594.02   -145434.24 
   28700    1250.1067   -96.879179      2204118          147  0.007193656   -148361.13   -145402.42 
   28800    1345.1587   -149.01744      2204118          147  0.007193656   -148623.41   -145439.74 
   28900    1243.9079   -74.068666      2204118          147  0.007193656   -148616.21   -145672.18 
   29000    1277.1626   -82.628123      2204118          147  0.007193656   -148714.46   -145691.71 
   29100    1270.2132    -1.805563      2204118          147  0.007193656   -148599.72   -145593.42 
   29200    1267.6111    83.705652      2204118          147  0.007193656   -148495.93   -145495.79 
   29300    1336.6249   -37.379971      2204118          147  0.007193656   -148578.43   -145414.95 
   29400    1279.4431    125.90718      2204118          147  0.007193656   -148426.64    -145398.5 
   29500    1285.0492   -17.632515      2204118          147  0.007193656   -148583.36   -145541.95 
   29600    1258.1382    68.159177      2204118          147  0.007193656   -148693.75   -145716.03 
   29700    1294.4044    150.32053      2204118          147  0.007193656   -148688.97   -145625.42 
   29800    1269.8185   -10.780481      2204118          147  0.007193656   -148494.09   -145488.73 
   29900    1347.4024    140.34012      2204118          147  0.007193656   -148599.38    -145410.4 
   30000     1329.746    -5.132824      2204118          147  0.007193656   -148581.22   -145434.03 
   30100    1302.8888    123.44662      2204118          147  0.007193656   -148583.99   -145500.37 
   30200    1283.1651   -102.59701      2204118          147  0.007193656   -148740.32   -145703.37 
   30300     1268.312   -126.14809      2204118          147  0.007193656   -148758.81   -145757.01 
   30400    1264.2328     54.31306      2204118          147  0.007193656    -148499.6   -145507.46 
   30500    1301.2448   -6.5540851      2204118          147  0.007193656   -148499.88   -145420.15 
   30600    1288.0089   -57.044803      2204118          147  0.007193656   -148509.93   -145461.52 
   30700     1366.807   -89.693535      2204118          147  0.007193656   -148777.29   -145542.38 
   30800     1249.139    -79.24855      2204118          147  0.007193656   -148549.68   -145593.27 
   30900    1327.5229    65.875745      2204118          147  0.007193656   -148716.38   -145574.45 
   31000     1335.035    90.821391      2204118          147  0.007193656   -148677.51    -145517.8 
   31100    1333.1378    19.018454      2204118          147  0.007193656   -148524.37   -145369.15 
   31200    1352.5041    117.71317      2204118          147  0.007193656   -148507.79   -145306.73 
   31300    1259.1026   -166.60382      2204118          147  0.007193656   -148440.19   -145460.19 
   31400    1273.5154   -264.49587      2204118          147  0.007193656   -148614.07   -145599.96 
   31500    1309.9672    136.91279      2204118          147  0.007193656   -148727.64   -145627.26 
   31600    1218.7892    72.401965      2204118          147  0.007193656   -148473.35   -145588.77 
   31700    1331.4468    56.080875      2204118          147  0.007193656   -148697.83   -145546.61 
   31800    1290.9932    112.03748      2204118          147  0.007193656   -148593.07   -145537.59 
   31900    1311.4157   -164.85203      2204118          147  0.007193656   -148560.73   -145456.92 
   32000    1312.0795   -85.920657      2204118          147  0.007193656    -148389.4   -145284.02 
   32100    1422.5451   -21.523364      2204118          147  0.007193656    -148550.4   -145183.57 
   32200    1312.8281      140.556      2204118          147  0.007193656   -148515.71   -145408.55 
   32300    1290.0588    282.06469      2204118          147  0.007193656   -148598.27   -145545.01 
   32400    1268.6863    -116.8605      2204118          147  0.007193656   -148605.72   -145603.04 
   32500    1304.3347    96.372209      2204118          147  0.007193656   -148638.02   -145550.97 
   32600    1257.8934   -262.88188      2204118          147  0.007193656   -148450.54    -145473.4 
   32700    1368.2066   -68.220396      2204118          147  0.007193656    -148521.1   -145282.87 
   32800    1381.5798     66.59428      2204118          147  0.007193656    -148482.8   -145212.93 
   32900    1333.5889    249.12619      2204118          147  0.007193656   -148514.88    -145358.6 
   33000    1246.4555   -42.426884      2204118          147  0.007193656      -148424   -145473.93 
   33100    1275.3438   -171.04132      2204118          147  0.007193656   -148514.66   -145496.22 
   33200    1294.4638   -13.870401      2204118          147  0.007193656   -148594.09    -145530.4 
   33300    1302.5858    110.13865      2204118          147  0.007193656   -148581.97   -145499.06 
   33400    1278.4535    212.70668      2204118          147  0.007193656   -148487.32   -145461.52 
   33500    1368.7106    40.862264      2204118          147  0.007193656   -148610.42   -145371.01 
   33600    1274.6123    49.783588      2204118          147  0.007193656   -148366.53   -145349.82 
   33700    1276.3708   -140.72261      2204118          147  0.007193656   -148524.09   -145503.23 
   33800    1249.2531   -171.18608      2204118          147  0.007193656   -148576.47   -145619.79 
   33900    1310.4546    -85.75038      2204118          147  0.007193656   -148626.99   -145525.45 
   34000    1278.9253    180.89104      2204118          147  0.007193656   -148449.12   -145422.21 
   34100    1373.4992    164.86388      2204118          147  0.007193656   -148600.48   -145349.73 
   34200    1248.4637    91.155077      2204118          147  0.007193656   -148564.26   -145609.44 
   34300    1273.1908   -226.31051      2204118          147  0.007193656   -148716.56   -145703.22 
   34400    1315.8356   -97.018301      2204118          147  0.007193656   -148696.08   -145581.81 
   34500    1286.5627    212.88774      2204118          147  0.007193656   -148472.43   -145427.45 
   34600    1306.7496    210.40382      2204118          147  0.007193656   -148464.21   -145371.44 
   34700    1287.1219   -11.439473      2204118          147  0.007193656    -148509.3   -145462.98 
   34800    1239.5432   -105.44675      2204118          147  0.007193656    -148606.7      -145673 
   34900    1242.0758   -68.439291      2204118          147  0.007193656   -148576.13   -145636.43 
   35000    1281.3285   -228.11483      2204118          147  0.007193656   -148552.34   -145519.74 
   35100    1273.5657    135.21679      2204118          147  0.007193656   -148416.97   -145402.74 
   35200    1346.4255     67.50819      2204118          147  0.007193656   -148574.38   -145387.71 
   35300    1306.6721    59.799046      2204118          147  0.007193656   -148556.22   -145463.63 
   35400    1264.7497   -81.846504      2204118          147  0.007193656   -148640.47    -145647.1 
   35500    1230.1661   -63.997669      2204118          147  0.007193656   -148727.95   -145816.44 
   35600     1284.565    134.71093      2204118          147  0.007193656   -148746.19   -145705.93 
   35700    1298.6047    175.95269      2204118          147  0.007193656   -148624.49      -145551 
   35800    1326.4714    64.875972      2204118          147  0.007193656   -148592.11   -145452.66 
   35900    1343.5522   -118.04339      2204118          147  0.007193656   -148602.14   -145422.27 
   36000    1269.2473   -190.51408      2204118          147  0.007193656   -148560.14   -145556.13 
   36100    1259.0946   -177.32298      2204118          147  0.007193656   -148716.91   -145736.94 
   36200    1285.8402   -57.041339      2204118          147  0.007193656   -148739.87   -145696.59 
   36300    1309.1436     102.5569      2204118          147  0.007193656   -148694.51   -145596.08 
   36400    1275.2912    4.3825387      2204118          147  0.007193656   -148541.41    -145523.1 
   36500     1328.266    -152.1683      2204118          147  0.007193656   -148626.09    -145482.4 
   36600    1329.0082   -22.813295      2204118          147  0.007193656   -148556.92   -145411.47 
   36700    1381.0329    67.149878      2204118          147  0.007193656   -148579.03   -145310.46 
   36800     1343.062    181.23665      2204118          147  0.007193656   -148435.95   -145257.24 
   36900    1305.4724    147.46638      2204118          147  0.007193656    -148495.4   -145405.66 
   37000    1311.5337    170.03444      2204118          147  0.007193656   -148642.19    -145538.1 
   37100    1245.0496   -76.987035      2204118          147  0.007193656   -148521.46   -145574.72 
   37200    1305.4617   -269.05908      2204118          147  0.007193656   -148643.42    -145553.7 
   37300    1268.0306   -206.61601      2204118          147  0.007193656   -148340.59   -145339.47 
   37400    1336.8894   -0.8223098      2204118          147  0.007193656   -148418.94   -145254.84 
   37500     1305.976    127.55556      2204118          147  0.007193656   -148446.35   -145355.42 
   37600    1345.4315   -101.63444      2204118          147  0.007193656   -148659.32      -145475 
   37700    1309.0717    106.78393      2204118          147  0.007193656   -148639.36    -145541.1 
   37800    1302.1723   -63.657873      2204118          147  0.007193656   -148645.51   -145563.58 
   37900    1248.0373    -39.34899      2204118          147  0.007193656   -148429.26   -145475.45 
   38000    1321.3986     2.694125      2204118          147  0.007193656   -148375.65   -145248.22 
   38100    1330.6343    171.33121      2204118          147  0.007193656   -148394.22   -145244.92 
   38200    1323.7862    276.61362      2204118          147  0.007193656   -148507.65   -145374.56 
   38300    1326.3019    6.0630164      2204118          147  0.007193656   -148620.75    -145481.7 
   38400    1335.3262   -172.98668      2204118          147  0.007193656   -148652.84   -145492.44 
   38500    1334.3948   -132.67228      2204118          147  0.007193656   -148640.15   -145481.96 
   38600    1290.6808   -177.24663      2204118          147  0.007193656   -148464.44    -145409.7 
   38700    1331.2537    97.311345      2204118          147  0.007193656   -148388.26   -145237.49 
   38800    1349.2229    66.789473      2204118          147  0.007193656   -148532.08   -145338.79 
   38900    1337.7812    40.985897      2204118          147  0.007193656   -148687.18   -145520.97 
   39000    1254.6613   -12.305962      2204118          147  0.007193656   -148499.56   -145530.08 
   39100    1325.2589   -139.40652      2204118          147  0.007193656   -148578.39   -145441.82 
   39200    1305.2588     113.5286      2204118          147  0.007193656   -148375.18   -145285.94 
   39300    1392.0839    145.53649      2204118          147  0.007193656   -148587.22   -145292.48 
   39400    1294.5556    124.53232      2204118          147  0.007193656   -148646.77   -145582.87 
   39500    1286.4708    32.816904      2204118          147  0.007193656   -148676.67    -145631.9 
   39600    1207.6673   -128.69146      2204118          147  0.007193656   -148439.47   -145581.21 
   39700    1272.4542   -29.629728      2204118          147  0.007193656   -148414.22   -145402.63 
   39800    1363.9231    133.78246      2204118          147  0.007193656    -148555.8   -145327.71 
   39900     1295.353    64.177629      2204118          147  0.007193656   -148457.19    -145391.4 
   40000    1311.3105    35.962915      2204118          147  0.007193656   -148591.87   -145488.31 
   40100    1285.3039   -145.75377      2204118          147  0.007193656   -148617.39   -145575.38 
   40200    1191.3538    60.837404      2204118          147  0.007193656   -148608.11   -145788.46 
   40300    1277.4463   -34.093927      2204118          147  0.007193656   -148872.11    -145848.7 
   40400    1297.1469    -72.75797      2204118          147  0.007193656   -148727.61   -145657.57 
   40500    1247.5666    71.763283      2204118          147  0.007193656   -148450.29    -145497.6 
   40600    1315.7869    119.95262      2204118          147  0.007193656   -148575.12   -145460.96 
   40700    1355.1084   -9.4156103      2204118          147  0.007193656   -148641.77   -145434.55 
   40800    1342.7471    111.75124      2204118          147  0.007193656   -148584.47   -145406.51 
   40900    1328.2768   -185.54514      2204118          147  0.007193656   -148653.02    -145509.3 
   41000    1261.8396   -26.990861      2204118          147  0.007193656   -148595.17    -145608.7 
   41100    1196.8688   -5.8879766      2204118          147  0.007193656   -148466.66   -145633.95 
   41200    1301.9485   0.61699599      2204118          147  0.007193656   -148507.58   -145426.18 
   41300    1296.3644   -60.611428      2204118          147  0.007193656   -148410.35   -145342.16 
   41400    1412.2931   -32.799609      2204118          147  0.007193656   -148702.58   -145360.02 
   41500    1319.5315    -73.06416      2204118          147  0.007193656   -148648.71   -145525.69 
   41600    1223.5508   -44.671613      2204118          147  0.007193656   -148609.04   -145713.19 
   41700    1222.3075    119.76316      2204118          147  0.007193656   -148522.46   -145629.54 
   41800    1339.3794    251.54741      2204118          147  0.007193656    -148626.5    -145456.5 
   41900    1277.2966   -9.7030429      2204118          147  0.007193656   -148419.22   -145396.16 
   42000    1311.9095   -54.964664      2204118          147  0.007193656   -148587.98   -145483.01 
   42100    1218.6485   -211.91199      2204118          147  0.007193656   -148539.08   -145654.83 
   42200    1222.6014   -142.14432      2204118          147  0.007193656   -148710.64   -145817.03 
   42300    1220.1895    96.707555      2204118          147  0.007193656   -148680.74   -145792.84 
   42400      1297.08    17.145553      2204118          147  0.007193656   -148590.11   -145520.23 
   42500    1305.2833    119.00991      2204118          147  0.007193656   -148509.81   -145420.51 
   42600    1276.6853   -143.21032      2204118          147  0.007193656   -148433.42   -145411.81 
   42700    1330.0561   -187.28036      2204118          147  0.007193656   -148639.02    -145491.1 
   42800    1262.1391    185.55074      2204118          147  0.007193656   -148626.42   -145639.24 
   42900    1314.0506    191.58278      2204118          147  0.007193656    -148806.2   -145696.15 
   43000    1250.3375    171.87709      2204118          147  0.007193656   -148476.21   -145516.95 
   43100    1316.4571   -24.729796      2204118          147  0.007193656   -148460.05   -145344.31 
   43200    1253.0999   -203.38537      2204118          147  0.007193656   -148371.59    -145405.8 
   43300    1279.7996    -147.8349      2204118          147  0.007193656   -148494.72   -145465.73 
   43400    1271.0721    -98.23714      2204118          147  0.007193656   -148611.07   -145602.74 
   43500    1244.5769    71.927713      2204118          147  0.007193656   -148623.04   -145677.42 
   43600    1311.4686    39.331922      2204118          147  0.007193656   -148592.44    -145488.5 
   43700    1324.9834    77.211293      2204118          147  0.007193656   -148472.12    -145336.2 
   43800    1342.4625    6.8999075      2204118          147  0.007193656   -148533.99    -145356.7 
   43900    1234.1766   -146.02978      2204118          147  0.007193656   -148423.84   -145502.84 
   44000    1332.9209    128.58725      2204118          147  0.007193656   -148756.78   -145602.07 
   44100    1243.2285    96.469057      2204118          147  0.007193656   -148695.09   -145752.66 
   44200    1285.0144   -47.329989      2204118          147  0.007193656   -148952.22    -145910.9 
   44300     1249.845   -52.140809      2204118          147  0.007193656   -148741.43   -145783.34 
   44400    1316.5478   -145.44628      2204118          147  0.007193656    -148749.7   -145633.74 
   44500     1340.246   -97.976687      2204118          147  0.007193656   -148686.47   -145514.43 
   44600    1271.5665     12.56787      2204118          147  0.007193656   -148414.99    -145405.5 
   44700    1357.5363     109.2655      2204118          147  0.007193656   -148559.25   -145346.28 
   44800    1296.7081    -82.87811      2204118          147  0.007193656   -148580.47   -145511.47 
   44900    1288.2831   -61.436434      2204118          147  0.007193656   -148727.23   -145678.16 
   45000    1288.3476    24.651908      2204118          147  0.007193656   -148681.69   -145632.48 
   45100    1270.1633    -41.58693      2204118          147  0.007193656   -148544.48   -145538.31 
   45200    1342.9582    244.61834      2204118          147  0.007193656   -148613.83   -145435.37 
   45300    1352.2869    58.640669      2204118          147  0.007193656   -148604.37   -145403.83 
   45400     1321.629    -30.71193      2204118          147  0.007193656   -148448.77   -145320.78 
   45500     1336.884    36.604146      2204118          147  0.007193656   -148513.12   -145349.03 
   45600    1228.5085   -78.563225      2204118          147  0.007193656   -148441.46   -145533.88 
   45700    1283.5309    9.4339572      2204118          147  0.007193656   -148639.89   -145602.08 
   45800    1306.9281   -48.694991      2204118          147  0.007193656    -148638.5   -145545.31 
   45900    1345.0975   -176.63484      2204118          147  0.007193656   -148534.42   -145350.89 
   46000    1396.0929    130.39846      2204118          147  0.007193656   -148528.98   -145224.76 
   46100    1388.3086    96.239776      2204118          147  0.007193656   -148605.83   -145320.03 
   46200     1271.704    54.146013      2204118          147  0.007193656    -148458.9   -145449.08 
   46300    1273.9289   -37.018759      2204118          147  0.007193656   -148523.08   -145507.99 
   46400    1252.6724    55.105616      2204118          147  0.007193656   -148500.61   -145535.83 
   46500     1296.916    55.940304      2204118          147  0.007193656    -148614.3    -145544.8 
   46600    1307.9255   -25.363482      2204118          147  0.007193656   -148581.15    -145485.6 
   46700    1325.9446    87.142481      2204118          147  0.007193656   -148517.88   -145379.69 
   46800    1336.8726   -67.348021      2204118          147  0.007193656   -148505.29   -145341.23 
   46900    1312.4261   -75.809755      2204118          147  0.007193656   -148605.51   -145499.31 
   47000    1254.3496   -5.3145359      2204118          147  0.007193656   -148603.97   -145635.23 
   47100    1310.8982    16.826723      2204118          147  0.007193656   -148677.93   -145575.34 
   47200    1296.9182   -42.312465      2204118          147  0.007193656   -148584.12   -145514.62 
   47300    1349.4065    137.86878      2204118          147  0.007193656   -148617.74   -145424.02 
   47400    1338.8191    186.08045      2204118          147  0.007193656   -148367.54   -145198.87 
   47500     1343.373   -39.412535      2204118          147  0.007193656   -148376.71   -145197.27 
   47600    1280.0214   -122.99638      2204118          147  0.007193656      -148438   -145408.49 
   47700    1247.6717    4.3704807      2204118          147  0.007193656   -148436.74   -145483.79 
   47800    1299.8613    199.44401      2204118          147  0.007193656   -148621.47   -145545.01 
   47900    1292.7995    268.40976      2204118          147  0.007193656   -148649.59   -145589.84 
   48000    1243.5583   -10.474413      2204118          147  0.007193656   -148668.29   -145725.09 
   48100    1323.8827   -247.46665      2204118          147  0.007193656   -148910.87   -145777.55 
   48200    1277.6899   -33.163091      2204118          147  0.007193656   -148582.77   -145558.78 
   48300    1337.9992    21.797742      2204118          147  0.007193656    -148622.7   -145455.97 
   48400    1350.3889    177.38852      2204118          147  0.007193656   -148639.12   -145443.07 
   48500    1242.8149    169.00754      2204118          147  0.007193656   -148461.29   -145519.84 
   48600    1264.1669   -25.027529      2204118          147  0.007193656   -148672.04   -145680.06 
   48700    1283.7699   -87.143733      2204118          147  0.007193656   -148769.26   -145730.88 
   48800    1309.1582    215.89568      2204118          147  0.007193656   -148596.02   -145497.55 
   48900    1321.0249    40.506032      2204118          147  0.007193656   -148505.52   -145378.96 
   49000    1292.2743    77.107337      2204118          147  0.007193656   -148520.13   -145461.62 
   49100    1308.4846   -175.07435      2204118          147  0.007193656   -148685.05   -145588.18 
   49200    1304.5234   -198.51746      2204118          147  0.007193656   -148746.62   -145659.12 
   49300    1301.5476   -2.4991467      2204118          147  0.007193656   -148603.55    -145523.1 
   49400    1334.4923    56.066045      2204118          147  0.007193656   -148469.94   -145311.52 
   49500    1396.6514    203.70422      2204118          147  0.007193656      -148645   -145339.45 
   49600    1242.6875    97.864001      2204118          147  0.007193656   -148443.61   -145502.46 
   49700    1349.0888   -30.218849      2204118          147  0.007193656    -148746.9   -145553.92 
   49800    1241.7777    -64.61216      2204118          147  0.007193656   -148509.79   -145570.79 
   49900    1296.8133   -11.893306      2204118          147  0.007193656   -148568.85    -145499.6 
   50000    1353.4895    45.537462      2204118          147  0.007193656   -148537.72   -145334.33 
   50100    1378.3284    131.53277      2204118          147  0.007193656   -148424.33   -145162.16 
   50200     1320.725   -62.433744      2204118          147  0.007193656   -148439.83   -145313.99 
   50300    1297.9081   -47.279142      2204118          147  0.007193656   -148555.49   -145483.65 
   50400    1288.8267    60.591968      2204118          147  0.007193656   -148606.16   -145555.82 
   50500    1289.5912   -136.55726      2204118          147  0.007193656   -148662.86    -145610.7 
   50600    1332.5977   -135.17762      2204118          147  0.007193656   -148681.45    -145527.5 
   50700    1334.4498     98.04756      2204118          147  0.007193656   -148477.46   -145319.14 
   50800    1281.6408    62.434058      2204118          147  0.007193656    -148290.5   -145257.16 
   50900    1312.0925    25.701032      2204118          147  0.007193656   -148471.44   -145366.02 
   51000    1316.8996     79.94265      2204118          147  0.007193656   -148558.92   -145442.13 
   51100    1277.8474  -0.74751682      2204118          147  0.007193656   -148531.31   -145506.95 
   51200    1293.0364    44.423402      2204118          147  0.007193656   -148637.26   -145576.95 
   51300     1216.803    77.140688      2204118          147  0.007193656   -148542.21   -145662.32 
   51400     1255.279    27.058193      2204118          147  0.007193656   -148767.97   -145797.02 
   51500    1299.8799   -91.604059      2204118          147  0.007193656   -148857.61    -145781.1 
   51600    1264.5082   -37.029355      2204118          147  0.007193656   -148526.15   -145533.36 
   51700    1257.4869   -72.334894      2204118          147  0.007193656   -148389.82   -145413.65 
   51800    1294.1204      57.4245      2204118          147  0.007193656   -148442.49   -145379.62 
   51900    1310.8405    22.078366      2204118          147  0.007193656   -148556.08   -145453.63 
   52000    1317.1332   -57.887878      2204118          147  0.007193656   -148774.13   -145656.79 
   52100    1287.2963    100.07644      2204118          147  0.007193656   -148752.92   -145706.19 
   52200    1329.6782   -10.768847      2204118          147  0.007193656   -148785.98   -145638.95 
   52300    1279.3786     120.7476      2204118          147  0.007193656   -148581.12   -145553.14 
   52400    1305.5363    7.6798344      2204118          147  0.007193656   -148615.94   -145526.05 
   52500    1258.9936   -161.00361      2204118          147  0.007193656   -148524.66   -145544.92 
   52600    1314.8851    73.894475      2204118          147  0.007193656   -148652.98   -145540.96 
   52700    1279.8537    159.09303      2204118          147  0.007193656   -148501.66   -145472.55 
   52800    1345.6115   -49.703161      2204118          147  0.007193656   -148589.61   -145404.86 
   52900    1315.3407    67.417882      2204118          147  0.007193656   -148483.82   -145370.72 
   53000    1320.5299   -102.09938      2204118          147  0.007193656   -148496.58    -145371.2 
   53100     1248.106   -95.868346      2204118          147  0.007193656   -148501.05   -145547.08 
   53200    1252.3758   -13.405002      2204118          147  0.007193656   -148613.35   -145649.27 
   53300    1288.5034     200.1185      2204118          147  0.007193656   -148686.37   -145636.79 
   53400    1316.6232    49.694777      2204118          147  0.007193656   -148522.43   -145406.29 
   53500    1315.3417    27.537346      2204118          147  0.007193656   -148387.03   -145273.93 
   53600    1287.1064   -73.420672      2204118          147  0.007193656   -148460.32   -145414.04 
   53700    1379.6644    12.321726      2204118          147  0.007193656    -148787.7   -145522.36 
   53800    1237.6075    45.288436      2204118          147  0.007193656   -148504.09   -145574.97 
   53900    1316.5995    140.66196      2204118          147  0.007193656   -148616.83   -145500.75 
   54000    1338.6116   -79.333073      2204118          147  0.007193656   -148419.71   -145251.53 
   54100    1376.9166    5.7506521      2204118          147  0.007193656   -148464.18   -145205.34 
   54200    1311.8458   -85.149617      2204118          147  0.007193656   -148488.72    -145383.9 
   54300     1300.259    -166.0172      2204118          147  0.007193656   -148548.06   -145470.65 
   54400    1362.6886    117.96721      2204118          147  0.007193656   -148775.41   -145550.25 
   54500    1300.4407    136.64987      2204118          147  0.007193656   -148692.53    -145614.7 
   54600    1262.7763    177.74711      2204118          147  0.007193656   -148643.69      -145655 
   54700    1276.0069    15.681796      2204118          147  0.007193656   -148775.09   -145755.09 
   54800      1246.31   -99.950529      2204118          147  0.007193656   -148666.05   -145716.33 
   54900    1314.4707    26.734274      2204118          147  0.007193656   -148603.88   -145492.84 
   55000     1345.285   -57.732137      2204118          147  0.007193656   -148598.62   -145414.65 
   55100    1293.4524    140.27918      2204118          147  0.007193656   -148481.86   -145420.57 
   55200    1306.3013   -11.172364      2204118          147  0.007193656    -148668.1   -145576.39 
   55300    1288.1642   -119.14124      2204118          147  0.007193656   -148757.92   -145709.14 
   55400    1240.9383    -187.7695      2204118          147  0.007193656   -148575.26   -145638.26 
   55500    1309.2006   0.51980985      2204118          147  0.007193656   -148612.42   -145513.86 
   55600    1342.9617    127.83946      2204118          147  0.007193656   -148621.42   -145442.95 
   55700     1256.478    85.133258      2204118          147  0.007193656   -148498.99    -145525.2 
   55800    1272.1524    12.628993      2204118          147  0.007193656   -148780.59   -145769.71 
   55900    1200.7753   -104.91517      2204118          147  0.007193656   -148581.59   -145739.64 
   56000    1298.2979    -185.6354      2204118          147  0.007193656   -148652.36    -145579.6 
   56100     1265.798    109.82426      2204118          147  0.007193656   -148480.47   -145484.62 
   56200    1293.7343    217.64631      2204118          147  0.007193656   -148509.41   -145447.44 
   56300    1392.7938    66.121293      2204118          147  0.007193656    -148748.8   -145452.39 
   56400     1260.938    10.353398      2204118          147  0.007193656   -148636.22   -145651.87 
   56500    1244.2298   -145.94019      2204118          147  0.007193656   -148672.95   -145728.15 
   56600    1253.2691   -87.524646      2204118          147  0.007193656   -148552.16   -145585.96 
   56700    1344.8506    100.35294      2204118          147  0.007193656   -148637.27   -145454.33 
   56800    1328.4945    25.788554      2204118          147  0.007193656   -148619.67   -145475.44 
   56900    1353.3381    56.549297      2204118          147  0.007193656      -148718   -145514.97 
   57000     1273.727   -41.560744      2204118          147  0.007193656   -148589.05   -145574.44 
   57100    1211.5208   -65.898297      2204118          147  0.007193656   -148614.93   -145747.55 
   57200    1250.5701    34.746577      2204118          147  0.007193656   -148722.21   -145762.41 
   57300     1287.986    175.09483      2204118          147  0.007193656   -148615.12   -145566.76 
   57400    1313.2848    45.036946      2204118          147  0.007193656   -148551.97   -145443.74 
   57500    1299.6101   -46.954409      2204118          147  0.007193656   -148539.29   -145463.42 
   57600    1282.7944   -202.22808      2204118          147  0.007193656   -148561.61   -145525.54 
   57700      1263.55   -22.385268      2204118          147  0.007193656   -148669.86   -145679.33 
   57800    1200.4998   -4.1622103      2204118          147  0.007193656   -148685.32   -145844.02 
   57900    1213.1805    228.31492      2204118          147  0.007193656    -148679.9   -145808.59 
   58000     1361.326    212.22181      2204118          147  0.007193656   -148751.89   -145529.96 
   58100    1292.6646   -30.620822      2204118          147  0.007193656   -148513.09   -145453.66 
   58200    1292.9809    -45.47497      2204118          147  0.007193656   -148486.65   -145426.47 
   58300    1296.1111   -88.387931      2204118          147  0.007193656   -148543.14   -145475.55 
   58400     1234.129    144.50771      2204118          147  0.007193656   -148508.95   -145588.06 
   58500    1291.1205     254.0813      2204118          147  0.007193656   -148795.95   -145740.17 
   58600    1276.0621    195.14154      2204118          147  0.007193656    -148789.4   -145769.26 
   58700    1346.3695   -57.852475      2204118          147  0.007193656   -148720.96   -145534.42 
   58800    1305.5236    -171.5765      2204118          147  0.007193656   -148481.95   -145392.09 
   58900     1295.087   -121.82163      2204118          147  0.007193656   -148491.32   -145426.16 
   59000    1278.0127   -105.58494      2204118          147  0.007193656   -148602.96   -145578.21 
   59100    1307.3712    71.398339      2204118          147  0.007193656    -148755.4   -145661.16 
   59200    1360.3197    42.033853      2204118          147  0.007193656   -148813.68   -145594.12 
   59300    1280.4891    129.40366      2204118          147  0.007193656   -148584.25   -145553.64 
   59400    1260.9306    75.418865      2204118          147  0.007193656   -148542.62   -145558.29 
   59500    1246.8434    2.6578165      2204118          147  0.007193656   -148444.48   -145493.49 
   59600    1318.3454    160.59489      2204118          147  0.007193656   -148546.72   -145426.51 
   59700    1333.4297    85.682777      2204118          147  0.007193656   -148568.48   -145412.56 
   59800    1338.5771   -87.806382      2204118          147  0.007193656   -148724.02   -145555.93 
   59900    1278.2272   -13.441883      2204118          147  0.007193656   -148710.09   -145684.83 
   60000    1245.9325   -79.694265      2204118          147  0.007193656    -148649.9   -145701.07 
   60100    1256.0989   -39.050774      2204118          147  0.007193656   -148451.16   -145478.28 
   60200    1264.9867    101.19778      2204118          147  0.007193656   -148373.63   -145379.71 
   60300    1292.9445   -116.45664      2204118          147  0.007193656   -148462.96   -145402.87 
   60400    1307.9068    -45.77905      2204118          147  0.007193656    -148562.8   -145467.29 
   60500    1307.6596   -10.420282      2204118          147  0.007193656   -148698.01   -145603.09 
   60600     1293.642    82.738345      2204118          147  0.007193656   -148724.09   -145662.34 
   60700    1293.6606   -140.26807      2204118          147  0.007193656   -148518.96   -145457.17 
   60800    1364.4057    186.61451      2204118          147  0.007193656   -148493.52    -145264.3 
   60900    1317.7403    184.38832      2204118          147  0.007193656   -148431.07   -145312.29 
   61000    1330.8466     73.43186      2204118          147  0.007193656   -148668.14   -145518.34 
   61100    1284.9824   -11.098675      2204118          147  0.007193656   -148614.76   -145573.51 
   61200    1301.3588   -43.524985      2204118          147  0.007193656   -148628.69   -145548.68 
   61300    1324.0381   -54.949743      2204118          147  0.007193656    -148592.6   -145458.92 
   61400    1366.0881     50.63517      2204118          147  0.007193656   -148480.74   -145247.53 
   61500    1331.3556    115.57335      2204118          147  0.007193656   -148426.17   -145275.17 
   61600    1305.7991  -0.53561492      2204118          147  0.007193656   -148495.99   -145405.47 
   61700    1296.8066    87.763294      2204118          147  0.007193656   -148533.41   -145464.17 
   61800    1268.7945    2.6536093      2204118          147  0.007193656    -148482.7   -145479.76 
   61900    1283.6965    112.00121      2204118          147  0.007193656   -148502.16   -145463.95 
   62000    1277.8989      77.8779      2204118          147  0.007193656   -148580.41   -145555.93 
   62100    1264.8552    86.824737      2204118          147  0.007193656   -148737.51    -145743.9 
   62200    1320.0747    44.925762      2204118          147  0.007193656   -148859.77   -145735.46 
   62300    1263.4546   -78.831516      2204118          147  0.007193656   -148573.72   -145583.43 
   62400     1317.542   -126.53064      2204118          147  0.007193656   -148594.98   -145476.67 
   62500     1344.448   -10.585334      2204118          147  0.007193656   -148664.14   -145482.15 
   62600     1283.196    57.762117      2204118          147  0.007193656    -148551.2   -145514.18 
   62700    1302.1246   -72.217565      2204118          147  0.007193656   -148571.11   -145489.29 
   62800    1317.9614    112.42286      2204118          147  0.007193656   -148576.27   -145456.97 
   62900     1268.542   -26.755118      2204118          147  0.007193656   -148485.49   -145483.15 
   63000     1373.783   -120.82149      2204118          147  0.007193656   -148857.65   -145606.23 
   63100     1296.229    31.142999      2204118          147  0.007193656   -148808.84   -145740.97 
   63200    1280.7645   -178.42294      2204118          147  0.007193656    -148748.5   -145717.23 
   63300     1325.081    103.59414      2204118          147  0.007193656   -148594.43   -145458.27 
   63400    1319.2082    143.10536      2204118          147  0.007193656   -148519.17   -145396.92 
   63500    1330.7015   -16.359929      2204118          147  0.007193656   -148588.94   -145439.49 
   63600    1258.2914   -2.8903674      2204118          147  0.007193656   -148522.89   -145544.82 
   63700    1325.4729    128.90651      2204118          147  0.007193656   -148755.38    -145618.3 
   63800    1222.2369   -118.10659      2204118          147  0.007193656   -148700.33   -145807.59 
   63900    1311.2269    36.909728      2204118          147  0.007193656   -148876.01   -145772.65 
   64000    1268.4848    80.481539      2204118          147  0.007193656   -148528.12   -145525.91 
   64100    1411.9288   -116.87776      2204118          147  0.007193656   -148813.07   -145471.37 
   64200    1286.6811     73.90724      2204118          147  0.007193656   -148577.01   -145531.74 
   64300    1253.7005   -37.434566      2204118          147  0.007193656   -148543.48   -145576.27 
   64400    1343.0764    131.72521      2204118          147  0.007193656   -148763.27   -145584.53 
   64500    1293.8504   -68.414834      2204118          147  0.007193656   -148675.27   -145613.03 
   64600    1376.6604    70.611827      2204118          147  0.007193656   -148772.54   -145514.32 
   64700    1266.0854    85.732651      2204118          147  0.007193656   -148413.97   -145417.45 
   64800    1357.9445    -69.85479      2204118          147  0.007193656   -148549.96   -145336.02 
   64900    1329.8177   -72.963224      2204118          147  0.007193656   -148426.16   -145278.79 
   65000    1269.0561   -174.77729      2204118          147  0.007193656   -148441.52   -145437.96 
   65100    1283.4891     49.79823      2204118          147  0.007193656   -148628.41   -145590.69 
   65200    1369.0786    57.633081      2204118          147  0.007193656   -148855.04   -145614.76 
   65300    1177.7139     71.52422      2204118          147  0.007193656   -148400.85   -145613.48 
   65400    1269.5043    52.713302      2204118          147  0.007193656   -148478.58   -145473.96 
   65500    1334.3519    29.787565      2204118          147  0.007193656   -148438.34   -145280.25 
   65600    1355.9631    31.880385      2204118          147  0.007193656   -148522.29   -145313.05 
   65700     1332.432    112.15039      2204118          147  0.007193656   -148657.72   -145504.17 
   65800    1280.9062    38.222834      2204118          147  0.007193656   -148563.29   -145531.69 
   65900    1319.9677    85.190273      2204118          147  0.007193656   -148655.58   -145531.53 
   66000     1301.448   -92.292179      2204118          147  0.007193656   -148569.59   -145489.37 
   66100    1341.9352   -248.96741      2204118          147  0.007193656   -148523.42   -145347.37 
   66200    1340.0126   -161.41557      2204118          147  0.007193656   -148391.11   -145219.62 
   66300    1362.8581    108.78146      2204118          147  0.007193656   -148586.56      -145361 
   66400    1253.6076    102.89465      2204118          147  0.007193656    -148497.2    -145530.2 
   66500    1335.0016    55.459874      2204118          147  0.007193656   -148724.51   -145564.88 
   66600    1245.6363   -13.765487      2204118          147  0.007193656   -148521.71   -145573.58 
   66700    1315.1329    -99.59799      2204118          147  0.007193656   -148611.48   -145498.87 
   66800    1370.0911    167.96649      2204118          147  0.007193656   -148600.97   -145358.29 
   66900    1383.3937    105.10638      2204118          147  0.007193656   -148554.21   -145280.05 
   67000     1285.435    95.897551      2204118          147  0.007193656   -148498.57   -145456.25 
   67100    1323.0913    41.058511      2204118          147  0.007193656   -148743.34   -145611.89 
   67200    1368.4941   -236.59515      2204118          147  0.007193656   -148843.63   -145604.73 
   67300    1365.7858   -199.23091      2204118          147  0.007193656   -148729.45   -145496.95 
   67400    1351.7923   -27.061674      2204118          147  0.007193656   -148560.14   -145360.77 
   67500     1295.247    -22.53368      2204118          147  0.007193656   -148452.94    -145387.4 
   67600    1269.2983    75.901827      2204118          147  0.007193656   -148665.64   -145661.51 
   67700    1226.1237    21.310665      2204118          147  0.007193656   -148607.57   -145705.62 
   67800    1301.8408   -39.364059      2204118          147  0.007193656   -148651.01   -145569.87 
   67900    1335.1006   -75.764073      2204118          147  0.007193656   -148592.18   -145432.31 
   68000     1400.192    67.873171      2204118          147  0.007193656   -148721.05   -145407.13 
   68100    1299.6725    55.257569      2204118          147  0.007193656    -148558.7   -145482.68 
   68200    1295.8762    31.153465      2204118          147  0.007193656   -148602.17   -145535.13 
   68300     1341.023    7.5066227      2204118          147  0.007193656   -148740.68    -145566.8 
   68400    1277.5957     57.76024      2204118          147  0.007193656   -148636.14   -145612.37 
   68500    1265.0636   -122.48742      2204118          147  0.007193656   -148584.28   -145590.18 
   68600    1348.4616    5.6532407      2204118          147  0.007193656   -148625.69    -145434.2 
   68700    1320.7418    179.92603      2204118          147  0.007193656   -148449.82   -145323.93 
   68800    1292.2676   -40.351525      2204118          147  0.007193656   -148517.06   -145458.57 
   68900    1303.4202   -236.72991      2204118          147  0.007193656   -148684.03   -145599.15 
   69000     1288.344   -34.707869      2204118          147  0.007193656   -148668.35   -145619.15 
   69100    1331.8825   -105.62586      2204118          147  0.007193656   -148716.82   -145564.57 
   69200    1306.5205   -7.4461524      2204118          147  0.007193656   -148466.73    -145374.5 
   69300     1399.717      156.181      2204118          147  0.007193656   -148491.74   -145178.94 
   69400    1329.3359   -20.489866      2204118          147  0.007193656   -148467.36   -145321.13 
   69500    1302.2368    49.793439      2204118          147  0.007193656   -148543.38   -145461.29 
   69600    1362.6196    122.31568      2204118          147  0.007193656   -148769.98   -145544.98 
   69700    1310.1991    -53.77846      2204118          147  0.007193656   -148692.13    -145591.2 
   69800    1336.9969   -3.1572635      2204118          147  0.007193656   -148877.32   -145712.97 
   69900    1210.8383    4.3124189      2204118          147  0.007193656   -148673.68   -145807.91 
   70000    1293.7969    149.66728      2204118          147  0.007193656   -148670.93   -145608.82 
   70100    1303.5239   -16.933156      2204118          147  0.007193656   -148533.62   -145448.49 
   70200    1338.5241   -53.836102      2204118          147  0.007193656   -148597.38   -145429.41 
   70300    1309.4755   -35.800412      2204118          147  0.007193656   -148658.72    -145559.5 
   70400    1339.5685    101.91427      2204118          147  0.007193656   -148864.87   -145694.43 
   70500    1296.3027    17.147583      2204118          147  0.007193656   -148712.16   -145644.12 
   70600    1322.7633    4.3525307      2204118          147  0.007193656   -148717.09   -145586.42 
   70700     1330.221   -55.140222      2204118          147  0.007193656   -148697.34   -145549.02 
   70800    1353.0298    77.094387      2204118          147  0.007193656   -148646.26   -145443.96 
   70900      1397.02    110.53258      2204118          147  0.007193656   -148537.28   -145230.86 
   71000    1373.0347      151.279      2204118          147  0.007193656   -148586.13   -145336.48 
   71100    1335.0583   -18.307357      2204118          147  0.007193656   -148652.78   -145493.01 
   71200    1259.2985   -100.66711      2204118          147  0.007193656   -148532.17   -145551.71 
   71300    1326.0333    77.154619      2204118          147  0.007193656   -148696.79   -145558.39 
   71400    1269.7471    89.762088      2204118          147  0.007193656    -148681.2   -145676.01 
   71500    1242.3174    112.72829      2204118          147  0.007193656   -148794.91   -145854.64 
   71600    1251.5269    35.436402      2204118          147  0.007193656   -148741.65   -145779.58 
   71700    1295.0149   -115.17123      2204118          147  0.007193656   -148660.19   -145595.19 
   71800    1323.6918    3.3556712      2204118          147  0.007193656    -148656.3   -145523.43 
   71900    1314.7661    78.377369      2204118          147  0.007193656   -148599.49   -145487.75 
   72000    1299.5143    8.0740838      2204118          147  0.007193656   -148577.01   -145501.36 
   72100    1315.2144    60.198932      2204118          147  0.007193656   -148658.49   -145545.69 
   72200    1269.5278     -242.813      2204118          147  0.007193656    -148611.4   -145606.72 
   72300    1239.9957    13.944356      2204118          147  0.007193656   -148556.81   -145622.03 
   72400    1313.7304    8.1925243      2204118          147  0.007193656   -148587.13   -145477.84 
   72500    1383.8194    88.848085      2204118          147  0.007193656   -148688.81   -145413.64 
   72600     1347.635    118.74924      2204118          147  0.007193656      -148714   -145524.47 
   72700    1261.4686     33.39751      2204118          147  0.007193656   -148704.24   -145718.65 
   72800    1251.7607   -24.867806      2204118          147  0.007193656   -148681.68   -145719.06 
   72900    1250.8827   -222.51069      2204118          147  0.007193656   -148565.47   -145604.93 
   73000    1270.5902   -77.163658      2204118          147  0.007193656    -148495.8   -145488.62 
   73100    1275.8508    113.22544      2204118          147  0.007193656   -148501.05   -145481.42 
   73200    1329.6737    55.714007      2204118          147  0.007193656   -148616.41   -145469.39 
   73300    1323.8894    119.39352      2204118          147  0.007193656   -148680.83    -145547.5 
   73400    1230.7895   -38.983402      2204118          147  0.007193656   -148664.37   -145751.38 
   73500    1187.5311    13.026315      2204118          147  0.007193656   -148526.91    -145716.3 
   73600    1362.6651    152.49594      2204118          147  0.007193656   -148792.49   -145567.39 
   73700    1256.1872    73.488337      2204118          147  0.007193656   -148484.92   -145511.82 
   73800    1281.8608    19.409812      2204118          147  0.007193656   -148544.89   -145511.03 
   73900    1286.3608    24.355914      2204118          147  0.007193656   -148590.39   -145545.87 
   74000    1290.6278   -61.009188      2204118          147  0.007193656    -148627.9   -145573.29 
   74100    1265.0514   -65.981615      2204118          147  0.007193656    -148529.8   -145535.73 
   74200    1334.7942   -35.363651      2204118          147  0.007193656   -148550.62   -145391.47 
   74300    1415.0413     89.52088      2204118          147  0.007193656   -148611.85   -145262.78 
   74400    1395.9443   -16.347908      2204118          147  0.007193656   -148725.55   -145421.68 
   74500    1279.2863   -154.99627      2204118          147  0.007193656   -148614.63   -145586.87 
   74600    1292.9795   -20.996072      2204118          147  0.007193656   -148624.58    -145564.4 
   74700     1353.529   -127.62426      2204118          147  0.007193656   -148726.87   -145523.38 
   74800     1353.049   -38.685192      2204118          147  0.007193656   -148619.75    -145417.4 
   74900    1380.3455   -101.65207      2204118          147  0.007193656      -148602   -145335.05 
   75000    1263.9839    4.7501305      2204118          147  0.007193656   -148417.14   -145425.59 
[...]
  381700    1274.3091    20.016257      2204118          147  0.007193656   -148717.11   -145701.13 
  381800    1278.2393    12.484807      2204118          147  0.007193656   -148719.62   -145694.33 
  381900    1274.8147   -136.52872      2204118          147  0.007193656   -148566.58    -145549.4 
  382000    1349.9585    115.69099      2204118          147  0.007193656   -148663.47   -145468.44 
  382100    1297.5011    136.57112      2204118          147  0.007193656   -148562.95   -145492.07 
  382200    1310.0524    52.592709      2204118          147  0.007193656   -148665.64   -145565.05 
  382300    1266.4675   -110.74059      2204118          147  0.007193656   -148681.69   -145684.26 
  382400    1314.0076   -26.283347      2204118          147  0.007193656   -148791.78   -145681.83 
  382500    1282.1556   -90.550623      2204118          147  0.007193656   -148528.47   -145493.91 
  382600    1368.3881    31.444627      2204118          147  0.007193656   -148569.67   -145331.02 
  382700     1389.816     255.7188      2204118          147  0.007193656    -148639.4   -145350.04 
  382800    1264.2728    -92.56851      2204118          147  0.007193656   -148540.45   -145548.22 
  382900    1290.5574    -29.23569      2204118          147  0.007193656   -148669.61   -145615.17 
  383000     1282.157   -51.223445      2204118          147  0.007193656   -148688.75   -145654.19 
  383100    1234.6381   -43.435803      2204118          147  0.007193656   -148572.23   -145650.13 
  383200    1358.0738    271.55294      2204118          147  0.007193656   -148642.31   -145428.07 
  383300     1276.912    88.261076      2204118          147  0.007193656   -148377.93   -145355.78 
  383400    1295.0382      22.4274      2204118          147  0.007193656   -148523.66   -145458.61 
  383500    1369.6329   -4.6311603      2204118          147  0.007193656   -148869.17   -145627.57 
  383600    1189.3893   -39.054123      2204118          147  0.007193656    -148471.7   -145656.69 
  383700    1364.5868    1.9900192      2204118          147  0.007193656    -148818.3   -145588.64 
  383800     1202.903    89.277242      2204118          147  0.007193656   -148426.67   -145579.68 
  383900    1341.5625   -1.0822019      2204118          147  0.007193656   -148656.39   -145481.23 
  384000    1343.9506    27.810611      2204118          147  0.007193656   -148488.69   -145307.87 
  384100    1370.8454    61.273112      2204118          147  0.007193656   -148649.42   -145404.96 
  384200    1321.6409    -26.07335      2204118          147  0.007193656   -148743.46   -145615.45 
  384300     1317.628   -11.008945      2204118          147  0.007193656      -148729   -145610.48 
  384400     1284.358    145.69832      2204118          147  0.007193656   -148634.21   -145594.44 
  384500      1352.08   -41.316222      2204118          147  0.007193656   -148845.93   -145645.88 
  384600    1288.8013   -95.574286      2204118          147  0.007193656   -148835.84   -145785.55 
  384700    1280.9361   -110.56913      2204118          147  0.007193656   -148829.77    -145798.1 
  384800    1232.7517   -21.235685      2204118          147  0.007193656   -148499.01   -145581.38 
  384900    1280.7053    61.961288      2204118          147  0.007193656   -148508.81   -145477.68 
  385000     1276.704    103.33995      2204118          147  0.007193656   -148522.54   -145500.88 
  385100    1287.0977    19.279306      2204118          147  0.007193656   -148651.58   -145605.32 
  385200    1207.3361   -135.95367      2204118          147  0.007193656   -148511.43   -145653.95 
  385300    1310.9925   -7.9692021      2204118          147  0.007193656   -148789.15   -145686.34 
  385400    1220.0382    237.40031      2204118          147  0.007193656   -148652.81   -145765.27 
  385500    1294.7294   -55.837485      2204118          147  0.007193656   -148703.52    -145639.2 
  385600    1353.2312    43.391908      2204118          147  0.007193656   -148657.43   -145454.65 
  385700    1352.0106   -102.29883      2204118          147  0.007193656   -148642.67   -145442.78 
  385800    1313.1901    150.99979      2204118          147  0.007193656   -148687.63   -145579.62 
  385900      1244.08   -30.848998      2204118          147  0.007193656   -148627.83   -145683.39 
  386000    1319.2709    2.6386868      2204118          147  0.007193656   -148829.91   -145707.51 
  386100    1264.3334   0.68208355      2204118          147  0.007193656   -148535.13   -145542.75 
  386200    1391.3489    4.7883439      2204118          147  0.007193656    -148661.1    -145368.1 
  386300    1295.4368   -23.394626      2204118          147  0.007193656    -148450.7    -145384.7 
  386400    1325.8214   -100.60948      2204118          147  0.007193656   -148681.11    -145543.2 
  386500    1223.4525    120.95517      2204118          147  0.007193656   -148562.92   -145667.29 
  386600    1298.7071    71.706027      2204118          147  0.007193656   -148786.77   -145713.04 
  386700    1255.2143    44.943068      2204118          147  0.007193656   -148620.95   -145650.16 
  386800    1318.3445    71.451875      2204118          147  0.007193656   -148489.11    -145368.9 
  386900    1242.4047   -191.34308      2204118          147  0.007193656   -148325.25   -145384.77 
  387000    1297.6642    10.995991      2204118          147  0.007193656   -148592.74   -145521.48 
  387100     1314.011   -157.38166      2204118          147  0.007193656   -148739.02   -145629.07 
  387200    1245.8916    87.326518      2204118          147  0.007193656   -148599.01   -145650.28 
  387300     1318.936    81.700315      2204118          147  0.007193656   -148732.58   -145610.98 
  387400    1239.4166   -5.3854906      2204118          147  0.007193656   -148571.17   -145637.76 
  387500    1342.6488   -4.5541204      2204118          147  0.007193656   -148776.94    -145599.2 
  387600    1302.0516    47.554188      2204118          147  0.007193656   -148492.24   -145410.59 
  387700    1299.6418   -31.931981      2204118          147  0.007193656   -148441.78   -145365.84 
  387800    1309.4916   -67.921405      2204118          147  0.007193656   -148580.29   -145481.03 
  387900    1282.0734   -42.566429      2204118          147  0.007193656   -148656.73   -145622.36 
  388000    1224.5876   -128.76624      2204118          147  0.007193656   -148561.21    -145662.9 
  388100    1286.3396   -24.256303      2204118          147  0.007193656   -148629.32   -145584.86 
  388200    1324.6049    195.17828      2204118          147  0.007193656   -148457.81   -145322.78 
  388300    1333.8971   -173.71133      2204118          147  0.007193656   -148424.88   -145267.86 
  388400    1338.5703    41.619752      2204118          147  0.007193656   -148527.87    -145359.8 
  388500    1249.7721   -110.60559      2204118          147  0.007193656   -148482.24   -145524.32 
  388600    1269.0205   -53.931629      2204118          147  0.007193656   -148562.05   -145558.57 
  388700    1298.8857    73.747391      2204118          147  0.007193656   -148607.32   -145533.16 
  388800    1287.5434    13.144331      2204118          147  0.007193656   -148658.44   -145611.13 
  388900    1286.5103   -116.95169      2204118          147  0.007193656   -148829.16    -145784.3 
  389000    1268.8949    -6.613746      2204118          147  0.007193656   -148857.13   -145853.96 
  389100    1223.8584   -15.599685      2204118          147  0.007193656   -148566.97   -145670.38 
  389200    1325.3031     31.63868      2204118          147  0.007193656   -148664.94   -145528.27 
  389300    1310.3987    183.46064      2204118          147  0.007193656   -148607.87   -145506.47 
  389400    1278.1429   -102.30412      2204118          147  0.007193656   -148630.98   -145605.92 
  389500    1283.8165   -43.860166      2204118          147  0.007193656   -148708.61   -145670.12 
  389600    1250.7155      -73.397      2204118          147  0.007193656   -148774.68   -145814.53 
  389700    1301.4376    92.635531      2204118          147  0.007193656   -148883.91   -145803.72 
  389800    1253.1317   -12.183589      2204118          147  0.007193656   -148527.12   -145561.26 
  389900    1365.2025   -45.502219      2204118          147  0.007193656   -148662.73   -145431.62 
  390000    1225.6688   -27.948712      2204118          147  0.007193656    -148343.7   -145442.84 
  390100    1386.4389   -195.31573      2204118          147  0.007193656   -148842.99   -145561.62 
  390200    1250.5641   -69.024432      2204118          147  0.007193656   -148685.81   -145726.02 
  390300     1225.096    116.00919      2204118          147  0.007193656   -148624.58   -145725.06 
  390400    1335.7107    7.3038921      2204118          147  0.007193656   -148770.43   -145609.12 
  390500    1313.2761     18.87388      2204118          147  0.007193656   -148677.89   -145569.67 
  390600    1304.0548   -35.831417      2204118          147  0.007193656   -148622.21   -145535.83 
  390700    1304.3384    19.000313      2204118          147  0.007193656   -148526.71   -145439.65 
  390800    1425.0753    11.052143      2204118          147  0.007193656   -148619.98   -145247.16 
  390900    1378.9469    62.845486      2204118          147  0.007193656    -148560.6   -145296.96 
  391000    1346.7673   -60.467647      2204118          147  0.007193656    -148617.2   -145429.72 
  391100     1272.523   -6.4504421      2204118          147  0.007193656   -148507.04   -145495.28 
  391200     1344.908    -22.28115      2204118          147  0.007193656   -148768.43   -145585.35 
  391300    1272.0115   -81.532665      2204118          147  0.007193656   -148676.16   -145665.61 
  391400    1236.2191   -10.083986      2204118          147  0.007193656   -148726.08   -145800.24 
  391500    1261.9935    180.01918      2204118          147  0.007193656   -148830.02   -145843.18 
  391600    1287.6718    180.16602      2204118          147  0.007193656   -148639.15   -145591.54 
  391700    1316.9215   -11.535894      2204118          147  0.007193656    -148611.6   -145494.75 
  391800    1298.5671   -53.709842      2204118          147  0.007193656    -148582.9    -145509.5 
  391900    1284.6889    16.433795      2204118          147  0.007193656    -148586.8   -145546.25 
  392000    1322.1547   -53.801634      2204118          147  0.007193656   -148826.78   -145697.55 
  392100     1253.304    72.216764      2204118          147  0.007193656   -148797.67    -145831.4 
  392200     1219.561   -59.187775      2204118          147  0.007193656   -148643.09   -145756.68 
  392300     1352.102     50.03805      2204118          147  0.007193656   -148765.77   -145565.66 
  392400     1310.992    38.753759      2204118          147  0.007193656   -148657.64   -145554.83 
  392500    1322.3449    -125.8331      2204118          147  0.007193656   -148684.34   -145554.66 
  392600    1282.8851   -139.79994      2204118          147  0.007193656   -148666.34   -145630.05 
  392700    1208.8247   -82.337873      2204118          147  0.007193656   -148612.61   -145751.61 
  392800     1282.416   -112.55051      2204118          147  0.007193656   -148774.19   -145739.01 
  392900    1297.3206   0.53861039      2204118          147  0.007193656   -148662.02   -145591.57 
  393000    1314.9458    282.29929      2204118          147  0.007193656   -148555.42   -145443.25 
  393100    1309.8078   -68.591523      2204118          147  0.007193656   -148525.49   -145425.49 
  393200    1301.0445   -33.129095      2204118          147  0.007193656   -148669.71   -145590.45 
  393300    1338.1055    45.463199      2204118          147  0.007193656    -148897.2   -145730.22 
  393400    1226.0694    71.790939      2204118          147  0.007193656    -148630.9   -145729.08 
  393500    1300.8958    109.74695      2204118          147  0.007193656   -148723.37   -145644.45 
  393600    1300.1304   -18.019756      2204118          147  0.007193656    -148613.2    -145536.1 
  393700    1333.7977    -40.94352      2204118          147  0.007193656   -148609.26   -145452.47 
  393800    1301.7451   -117.58006      2204118          147  0.007193656   -148545.28   -145464.36 
  393900    1343.5464   -94.159923      2204118          147  0.007193656   -148636.27   -145456.41 
  394000    1317.9763    84.740036      2204118          147  0.007193656   -148642.09   -145522.75 
  394100    1220.3419   -8.6661407      2204118          147  0.007193656   -148551.96    -145663.7 
  394200    1207.1604    106.58247      2204118          147  0.007193656   -148644.57   -145787.51 
  394300    1264.3949    33.423878      2204118          147  0.007193656   -148735.49   -145742.97 
  394400    1318.7478   -36.542909      2204118          147  0.007193656   -148629.22   -145508.06 
  394500    1306.7029   -42.185925      2204118          147  0.007193656   -148565.59   -145472.94 
  394600    1291.3528    -26.82857      2204118          147  0.007193656   -148606.96   -145550.63 
  394700    1332.8446    153.08691      2204118          147  0.007193656   -148820.42   -145665.89 
  394800    1270.7907    104.59402      2204118          147  0.007193656   -148738.07   -145730.41 
  394900    1355.2653   -13.719661      2204118          147  0.007193656    -148809.3   -145601.71 
  395000    1338.1653     30.54639      2204118          147  0.007193656   -148555.87   -145388.75 
  395100    1328.0733   -94.729557      2204118          147  0.007193656   -148550.58   -145407.34 
  395200    1320.5738    18.027991      2204118          147  0.007193656   -148663.31   -145537.83 
  395300    1296.2445    12.264798      2204118          147  0.007193656   -148772.93   -145705.02 
  395400    1307.8585    19.977229      2204118          147  0.007193656   -148788.05   -145692.66 
  395500    1336.0823   -40.065551      2204118          147  0.007193656   -148786.76   -145624.57 
  395600    1341.9685    5.9367415      2204118          147  0.007193656   -148693.21   -145517.08 
  395700     1274.727    -94.41033      2204118          147  0.007193656   -148493.49   -145476.51 
  395800    1271.9948    7.0147696      2204118          147  0.007193656   -148510.37   -145499.86 
  395900    1235.5431   -79.277585      2204118          147  0.007193656      -148572   -145647.76 
  396000    1290.5555   -49.060937      2204118          147  0.007193656   -148739.57   -145685.13 
  396100    1229.5531   -59.393922      2204118          147  0.007193656   -148611.59   -145701.53 
  396200    1316.4882   -115.55915      2204118          147  0.007193656   -148681.78   -145565.96 
  396300    1310.4402   -29.966579      2204118          147  0.007193656   -148503.63   -145402.12 
  396400    1318.8616    189.35272      2204118          147  0.007193656   -148538.78   -145417.34 
  396500    1263.1772    134.56256      2204118          147  0.007193656   -148577.98   -145588.34 
  396600    1219.4416    100.87172      2204118          147  0.007193656   -148598.89   -145712.76 
  396700    1272.1139   -167.59143      2204118          147  0.007193656    -148681.7   -145670.91 
  396800    1344.1117   -3.0623614      2204118          147  0.007193656   -148749.93   -145568.73 
  396900    1285.4585   -46.469238      2204118          147  0.007193656   -148509.72   -145467.34 
  397000    1289.1695    19.274554      2204118          147  0.007193656   -148466.08   -145414.92 
  397100    1353.8345    32.459757      2204118          147  0.007193656   -148728.85   -145524.64 
  397200    1297.7848   -33.125514      2204118          147  0.007193656   -148779.33   -145707.78 
  397300    1268.1093    -54.56081      2204118          147  0.007193656   -148737.89   -145736.58 
  397400    1329.6653   -18.797513      2204118          147  0.007193656      -148801      -145654 
  397500    1324.9578   -37.084394      2204118          147  0.007193656   -148556.77   -145420.91 
  397600    1314.2025   -90.742867      2204118          147  0.007193656   -148531.98   -145421.57 
  397700    1324.4136     52.06561      2204118          147  0.007193656   -148682.99   -145548.42 
  397800    1330.3171     22.19108      2204118          147  0.007193656    -148812.5   -145663.95 
  397900     1249.843    5.7861082      2204118          147  0.007193656   -148628.58    -145670.5 
  398000    1327.9547    -38.93713      2204118          147  0.007193656   -148749.94   -145606.98 
  398100     1350.127    129.87953      2204118          147  0.007193656   -148766.21   -145570.78 
  398200    1252.1726   -59.439757      2204118          147  0.007193656   -148534.88   -145571.29 
  398300     1279.969   -107.25934      2204118          147  0.007193656   -148611.05   -145581.67 
  398400    1299.6904   -157.48545      2204118          147  0.007193656   -148618.74   -145542.68 
  398500    1359.1882   -56.238309      2204118          147  0.007193656   -148670.12   -145453.25 
  398600     1340.771   -26.857703      2204118          147  0.007193656   -148718.48    -145545.2 
  398700    1322.1636    63.500795      2204118          147  0.007193656   -148830.88   -145701.63 
  398800    1246.5246    152.16713      2204118          147  0.007193656   -148689.76   -145739.54 
  398900     1293.671   -50.367774      2204118          147  0.007193656   -148700.99   -145639.18 
  399000    1330.1199    47.831344      2204118          147  0.007193656   -148520.46   -145372.38 
  399100    1306.6544   -138.01131      2204118          147  0.007193656   -148459.81   -145367.26 
  399200    1338.0124   -44.225399      2204118          147  0.007193656   -148621.97   -145455.21 
  399300    1349.8581    113.71513      2204118          147  0.007193656   -148800.83   -145606.04 
  399400    1284.9016   -36.066969      2204118          147  0.007193656   -148711.66    -145670.6 
  399500    1365.1796   -170.73522      2204118          147  0.007193656   -148886.46   -145655.41 
  399600    1259.4888   -115.68198      2204118          147  0.007193656   -148571.35   -145590.44 
  399700    1323.1731    20.253124      2204118          147  0.007193656   -148500.84    -145369.2 
  399800     1369.856    105.88944      2204118          147  0.007193656    -148509.3   -145267.18 
  399900    1343.7333   -4.7573195      2204118          147  0.007193656   -148618.03   -145437.73 
  400000    1300.3089   -117.00227      2204118          147  0.007193656   -148634.97   -145557.45 
  400057    1325.5771    100.45364      2204118          147  0.007193656    -148732.4   -145595.07 
Loop time of 5344.67 on 16 procs for 400000 steps with 795 atoms

Performance: 1.617 ns/day, 14.846 hours/ns, 74.841 timesteps/s
99.9% CPU use with 16 MPI tasks x no OpenMP threads

MPI task timing breakdown:
Section |  min time  |  avg time  |  max time  |%varavg| %total
---------------------------------------------------------------
Pair    | 0.24123    | 1209.8     | 4367.9     |4389.0 | 22.64
Neigh   | 0.040832   | 3.8486     | 8.5176     | 194.5 |  0.07
Comm    | 0.73139    | 817.16     | 3219.5     |3856.8 | 15.29
Output  | 0.35548    | 0.37776    | 0.47537    |   4.5 |  0.01
Modify  | 935.35     | 3312.2     | 5342.3     |3578.9 | 61.97
Other   |            | 1.229      |            |       |  0.02

Nlocal:        49.6875 ave         209 max           0 min
Histogram: 12 0 0 0 0 0 0 0 0 4
Nghost:        159.562 ave         425 max           0 min
Histogram: 8 0 0 0 0 4 0 0 0 4
Neighs:        3054.25 ave       12850 max           0 min
Histogram: 12 0 0 0 0 0 0 0 0 4

Total # of neighbors = 48868
Ave neighs/atom = 61.469182
Neighbor list builds = 15165
Dangerous builds = 0

write_data graphene_single_layer_ReaxFF_795_C_temp_1300K.data
System init for write_data ...
Total wall time: 1:29:08
