
Skip to content
Pull requests
Issues
Marketplace
Explore
@vitorgrizzi
sonalij3 /
Graphene-Finite-Size-Study
Private

Code
Issues
Pull requests
Actions
Projects
Security

    Insights

Graphene-Finite-Size-Study/data/LJ/graphene_single_layer_LJ_40C_log.txt
@joseml2
joseml2 Added MD input files andcorresponding .data files to MD-scripts dir f…
Latest commit 80e50a3 6 days ago
History
1 contributor
615 lines (602 sloc) 54 KB
# System definition
read_data graphene_single_layer_test_time_9-9_real_charge.data
Reading data file ...
  orthogonal box = (-2 -2 -2) to (11 11 2)
  1 by 1 by 1 MPI processor grid
  reading atoms ...
  40 atoms
  read_data CPU = 0.005 seconds
pair_style lj/cut 6
pair_coeff      1 1 0.066047 3.4

# Virtual force wall to keep the cylinder shape
#region myCylinder cylinder z 0. 0. 20.3 -22.079997 505.920003 units box
#fix wall all wall/region myCylinder lj93 1.0 1.0 2.5

# Minimization
timestep 1
thermo 100
thermo_style custom step temp press vol lx density pe etotal
dump 2 all custom 1000 graphene_single_layer_LJ_40C.lammpstrj id type x y z
min_style cg
minimize 1.0e-6 1.0e-6 100 1000
WARNING: Using 'neigh_modify every 1 delay 0 check yes' setting during minimization (../min.cpp:187)
  generated 0 of 0 mixed pair_coeff terms from geometric mixing rule
Neighbor list info ...
  update every 1 steps, delay 0 steps, check yes
  max neighbors/atom: 10000, page size: 100000
  master list distance cutoff = 6.4
  ghost atom cutoff = 6.4
  binsize = 3.2, bins = 5 5 2
  1 neighbor lists, perpetual/occasional/extra = 1 0 0
  (1) pair lj/cut, perpetual
      attributes: half, newton on
      pair build: half/bin/atomonly/newton
      stencil: half/bin/3d
      bin: standard
Per MPI rank memory allocation (min/avg/max) = 5.584 | 5.584 | 5.584 Mbytes
Step Temp Press Volume Lx Density PotEng TotEng 
       0            0 1.9402103e+08          676           13    1.1801322    476815.89    476815.89 
      96            0    2652900.4          676           13    1.1801322    6295.5649    6295.5649 
Loop time of 0.0089102 on 1 procs for 96 steps with 40 atoms

95.7% CPU use with 1 MPI tasks x no OpenMP threads

Minimization stats:
  Stopping criterion = energy tolerance
  Energy initial, next-to-last, final = 
      476815.893862455    6295.5697900474   6295.56485715261
  Force two-norm initial, final = 316655.67 9.7169739
  Force max component initial, final = 79166.336 3.5030036
  Final line search alpha, max atom move = 0.016739958 0.058640135
  Iterations, force evaluations = 96 150

MPI task timing breakdown:
Section |  min time  |  avg time  |  max time  |%varavg| %total
---------------------------------------------------------------
Pair    | 0.0051154  | 0.0051154  | 0.0051154  |   0.0 | 57.41
Neigh   | 0.0018262  | 0.0018262  | 0.0018262  |   0.0 | 20.50
Comm    | 0.0009089  | 0.0009089  | 0.0009089  |   0.0 | 10.20
Output  | 0          | 0          | 0          |   0.0 |  0.00
Modify  | 0          | 0          | 0          |   0.0 |  0.00
Other   |            | 0.00106    |            |       | 11.89

Nlocal:             40 ave          40 max          40 min
Histogram: 1 0 0 0 0 0 0 0 0 0
Nghost:            750 ave         750 max         750 min
Histogram: 1 0 0 0 0 0 0 0 0 0
Neighs:           1378 ave        1378 max        1378 min
Histogram: 1 0 0 0 0 0 0 0 0 0

Total # of neighbors = 1378
Ave neighs/atom = 34.45
Neighbor list builds = 27
Dangerous builds = 0
#timestep 0.25
fix 1 all nvt temp 50.0 50.0 $(100.0*dt)
fix 1 all nvt temp 50.0 50.0 100
run 50000
  generated 0 of 0 mixed pair_coeff terms from geometric mixing rule
Per MPI rank memory allocation (min/avg/max) = 4.459 | 4.459 | 4.459 Mbytes
Step Temp Press Volume Lx Density PotEng TotEng 
      96            0    2652900.4          676           13    1.1801322    6295.5649    6295.5649 
     100  0.064952201    2652896.9          676           13    1.1801322    6295.5572    6295.5647 
     200    1616.2097    425965.35          676           13    1.1801322    894.65764    1082.5446 
     300    203.20393    232951.28          676           13    1.1801322    462.64348    486.26626 
     400    117.28946    209440.35          676           13    1.1801322    408.70039    422.33548 
     500    65.294479    198059.94          676           13    1.1801322    383.07548    390.66607 
     600    250.06039    174526.53          676           13    1.1801322    323.93329    353.00321 
     700    50.430537    152870.22          676           13    1.1801322    276.77478    282.63741 
     800    19.513208    151249.71          676           13    1.1801322    273.52983    275.79827 
     900    12.200017    151199.55          676           13    1.1801322    273.54618    274.96446 
    1000     21.47857    151648.31          676           13    1.1801322    274.43432    276.93124 
    1100     54.41928    153231.39          676           13    1.1801322    277.55016    283.87649 
    1200    114.13606    155004.14          676           13    1.1801322    280.62593    293.89442 
    1300    84.151234    154674.52          676           13    1.1801322    280.40204    290.18475 
    1400     43.67727    152515.99          676           13    1.1801322     276.0607    281.13825 
    1500    30.205266    151679.04          676           13    1.1801322     274.3435    277.85491 
    1600     25.81604    151893.93          676           13    1.1801322    274.92823    277.92939 
    1700    42.921743    152717.44          676           13    1.1801322    276.55457    281.54429 
    1800    76.943825    154248.78          676           13    1.1801322    279.53104    288.47588 
    1900    96.576117    154358.43          676           13    1.1801322    279.42341    290.65053 
    2000    52.174394    153531.34          676           13    1.1801322    278.30455    284.36991 
    2100    24.725644    152651.19          676           13    1.1801322    276.73329    279.60769 
    2200    33.071659    151886.78          676           13    1.1801322    274.77865    278.62328 
    2300    44.154887    152224.16          676           13    1.1801322    275.36526    280.49833 
    2400    54.631334    153835.55          676           13    1.1801322    278.97903    285.33001 
    2500    64.007426     155187.8          676           13    1.1801322    281.99909    289.44006 
    2600    63.444327    153823.33          676           13    1.1801322    278.78025    286.15575 
    2700    49.573876    152368.64          676           13    1.1801322    275.61218    281.37522 
    2800    29.936867    152291.19          676           13    1.1801322    275.79006    279.27027 
    2900    36.429669    152323.81          676           13    1.1801322    275.75101    279.98601 
    3000    45.370017    153469.72          676           13    1.1801322    278.27847    283.55281 
    3100     70.24615    154324.09          676           13    1.1801322    279.84023    288.00646 
    3200    67.077464    154236.89          676           13    1.1801322    279.68977    287.48763 
    3300    48.041854     153098.8          676           13    1.1801322    277.36154    282.94648 
    3400    35.786707    152374.19          676           13    1.1801322    275.87897    280.03923 
    3500    37.779484    152207.03          676           13    1.1801322    275.44921    279.84113 
    3600    37.301608    153244.38          676           13    1.1801322    277.90152    282.23789 
    3700    66.544581    153781.69          676           13    1.1801322    278.62853    286.36445 
    3800     73.99254    154097.74          676           13    1.1801322    279.22521    287.82696 
    3900    61.307227    153191.11          676           13    1.1801322    277.32835    284.45542 
    4000    41.365824    152576.86          676           13    1.1801322    276.25127    281.06011 
    4100    36.305747    152319.55          676           13    1.1801322    275.74065    279.96125 
    4200    41.247418    152719.74          676           13    1.1801322    276.58895    281.38402 
    4300    66.054837     153168.1          676           13    1.1801322    277.18795    284.86693 
    4400    70.787411    154102.52          676           13    1.1801322    279.29717    287.52632 
    4500      51.6455    154097.33          676           13    1.1801322    279.64882    285.65269 
    4600    38.310221    153073.24          676           13    1.1801322    277.48316    281.93678 
    4700    38.701377    152366.02          676           13    1.1801322     275.7999      280.299 
    4800    37.989563    152617.09          676           13    1.1801322    276.40818    280.82453 
    4900    38.997228    153744.66          676           13    1.1801322    279.04451      283.578 
    5000    63.431557    154105.45          676           13    1.1801322    279.44515    286.81917 
    5100    69.486141    153685.42          676           13    1.1801322    278.33255    286.41042 
    5200    53.842899    152952.75          676           13    1.1801322    276.90842    283.16775 
    5300    39.019336    152552.66          676           13    1.1801322    276.23896    280.77502 
    5400    40.944023    152411.87          676           13    1.1801322    275.86706    280.62687 
    5500    54.054355    152738.12          676           13    1.1801322    276.39309      282.677 
    5600    61.375148    153766.87          676           13    1.1801322    278.67469    285.80965 
    5700    74.365372    153649.27          676           13    1.1801322    278.17671    286.82181 
    5800     45.04707    153762.44          676           13    1.1801322    278.97306    284.20985 
    5900    49.005154    152436.14          676           13    1.1801322    275.77954    281.47647 
    6000    34.394223    152652.61          676           13    1.1801322    276.55503    280.55342 
    6100    40.805053     152910.8          676           13    1.1801322    277.05491    281.79856 
    6200    53.329632    153638.62          676           13    1.1801322     278.5359    284.73556 
    6300    64.017882    154050.98          676           13    1.1801322    279.30598    286.74816 
    6400    56.311156    153719.82          676           13    1.1801322    278.67211    285.21837 
    6500    40.141329    153106.08          676           13    1.1801322    277.52511    282.19161 
    6600    35.766867    152662.18          676           13    1.1801322    276.55775    280.71571 
    6700    44.140769    152570.26          676           13    1.1801322    276.18514    281.31658 
    6800    52.051141    153261.85          676           13    1.1801322    277.66634    283.71736 
    6900    56.459777    154153.41          676           13    1.1801322    279.70011    286.26365 
    7000    64.056517    153720.75          676           13    1.1801322    278.52601    285.97268 
    7100    53.139218    153006.23          676           13    1.1801322    277.04803    283.22555 
    7200    36.779668    152790.19          676           13    1.1801322    276.83859    281.11428 
    7300    35.710721    152746.39          676           13    1.1801322    276.75656    280.90799 
    7400    47.029471    153071.33          676           13    1.1801322     277.3067    282.77395 
    7500    59.304346    153713.23          676           13    1.1801322    278.59652    285.49074 
    7600    58.856834    154085.47          676           13    1.1801322    279.48608    286.32828 
    7700    52.667812    153425.88          676           13    1.1801322    278.03961    284.16233 
    7800    39.312998    152926.97          676           13    1.1801322    277.11497    281.68517 
    7900    35.955801    152749.88          676           13    1.1801322    276.75691    280.93683 
    8000    53.111406     152507.8          676           13    1.1801322    275.86906    282.04335 
    8100    49.253311     153748.5          676           13    1.1801322    278.86728    284.59305 
    8200    64.374595    153830.47          676           13    1.1801322    278.78581    286.26946 
    8300    62.876742    153362.77          676           13    1.1801322    277.69818     285.0077 
    8400      51.2051    152747.68          676           13    1.1801322    276.47106    282.42373 
    8500    33.768969    152876.14          676           13    1.1801322    277.09557    281.02127 
    8600    42.828512    152734.44          676           13    1.1801322    276.59341    281.57229 
    8700     66.72666    152683.84          676           13    1.1801322    276.03385    283.79093 
    8800    52.817457    154155.93          676           13    1.1801322    279.76131    285.90143 
    8900    52.774625    154024.86          676           13    1.1801322    279.45511    285.59024 
    9000    45.958486    153257.03          676           13    1.1801322    277.76799    283.11074 
    9100    40.287392    152745.24          676           13    1.1801322    276.66944    281.35291 
    9200    39.352446     152754.4          676           13    1.1801322    276.70579    281.28058 
    9300    41.826952    153345.06          676           13    1.1801322    278.05301    282.91546 
    9400     49.66861    154022.62          676           13    1.1801322     279.5042    285.27825 
    9500    67.103562    153585.13          676           13    1.1801322    278.14834    285.94924 
    9600    48.784715    153520.18          676           13    1.1801322    278.32856    283.99986 
    9700    42.221583    152855.49          676           13    1.1801322    276.89543    281.80376 
    9800    38.929274    152716.45          676           13    1.1801322    276.62228    281.14787 
    9900    45.587706    152934.29          676           13    1.1801322    277.01798    282.31762 
   10000    52.157521    153622.04          676           13    1.1801322    278.51288    284.57628 
   10100    59.837928    153884.51          676           13    1.1801322    278.98726    285.94351 
   10200    57.700389    153420.01          676           13    1.1801322    277.93208    284.63984 
   10300    40.943092    153171.52          676           13    1.1801322    277.65832    282.41802 
   10400     38.23701    152798.63          676           13    1.1801322    276.82639     281.2715 
   10500    50.338012     152524.6          676           13    1.1801322    275.95994    281.81182 
   10600    54.143346    153236.53          676           13    1.1801322    277.57002    283.86427 
   10700    61.826485    153712.08          676           13    1.1801322    278.54608     285.7335 
   10800    61.321561    153541.09          676           13    1.1801322    278.15393    285.28266 
   10900    47.234917    153205.63          676           13    1.1801322    277.62746    283.11859 
   11000    44.529389    152636.45          676           13    1.1801322     276.3335    281.51012 
   11100     46.00582    152593.44          676           13    1.1801322    276.20601    281.55426 
   11200    54.097385     152922.9          676           13    1.1801322    276.83069     283.1196 
   11300    55.464656    153750.48          676           13    1.1801322    278.75215    285.20001 
   11400    52.293626    154051.63          676           13    1.1801322    279.52177    285.60098 
   11500    50.670066     153358.6          676           13    1.1801322    277.92068    283.81116 
   11600    51.841479    152516.93          676           13    1.1801322    275.91513    281.94179 
   11700    42.588212    152668.86          676           13    1.1801322    276.44251    281.39346 
   11800    41.825741    153163.87          676           13    1.1801322    277.62921    282.49152 
   11900    51.734922    153656.79          676           13    1.1801322    278.60405    284.61832 
   12000    68.221396       153456          676           13    1.1801322    277.82276     285.7536 
   12100    62.597655    153149.78          676           13    1.1801322    277.20673    284.48381 
   12200    42.970344    153084.67          676           13    1.1801322    277.42372    282.41909 
   12300    40.064144    152791.68          676           13    1.1801322    276.78155    281.43907 
   12400    46.569505    152791.89          676           13    1.1801322    276.66074    282.07452 
   12500    56.336044       153157          676           13    1.1801322      277.344    283.89316 
   12600    52.853903    153979.03          676           13    1.1801322    279.34339    285.48774 
   12700     57.24164    153574.52          676           13    1.1801322    278.31554    284.96997 
   12800    46.589196    153197.39          676           13    1.1801322    277.61681    283.03288 
   12900    35.586033    153047.21          676           13    1.1801322    277.47017     281.6071 
   13000    36.429592    153051.92          676           13    1.1801322    277.46756    281.70256 
   13100    48.352414    153234.34          676           13    1.1801322    277.67433    283.29537 
   13200    57.776614       153653          676           13    1.1801322    278.48314    285.19976 
   13300    52.114284    153964.15          676           13    1.1801322    279.32516    285.38353 
   13400    43.260211     153593.9          676           13    1.1801322    278.61796    283.64703 
   13500    48.783487    152669.07          676           13    1.1801322    276.33096    282.00212 
   13600    47.858227    152532.98          676           13    1.1801322    276.03019    281.59378 
   13700    47.455992    152992.72          676           13    1.1801322     277.1195    282.63633 
   13800    59.429091    153322.63          676           13    1.1801322    277.67152    284.58025 
   13900    64.443285    153508.95          676           13    1.1801322    278.01971    285.51134 
   14000     58.34566    153272.55          676           13    1.1801322    277.57553     284.3583 
   14100    50.227804    152802.49          676           13    1.1801322    276.62049    282.45955 
   14200    37.794366    152945.77          676           13    1.1801322     277.1814    281.57505 
   14300    46.696305    152860.32          676           13    1.1801322     276.8245    282.25302 
   14400    48.202167    153545.11          676           13    1.1801322    278.40117    284.00475 
   14500    60.159387    153617.97          676           13    1.1801322    278.35533    285.34895 
   14600    55.920579    153537.69          676           13    1.1801322    278.23861    284.73947 
   14700     46.44771    153169.46          676           13    1.1801322    277.55024    282.94986 
   14800    38.729152    152984.27          676           13    1.1801322    277.25646    281.75879 
   14900    44.437105    152819.43          676           13    1.1801322    276.76461    281.93049 
   15000    50.838548    153192.14          676           13    1.1801322    277.52026    283.43033 
   15100    59.104863    153556.55          676           13    1.1801322    278.22677     285.0978 
   15200    54.525801    153778.92          676           13    1.1801322    278.83685    285.17556 
   15300    57.980339    152931.18          676           13    1.1801322    276.77201    283.51231 
   15400     44.01492    152864.11          676           13    1.1801322    276.87773    281.99453 
   15500    39.365708    152946.94          676           13    1.1801322    277.15741    281.73373 
   15600    53.379963    152858.54          676           13    1.1801322     276.6882    282.89371 
   15700    60.139098     153328.7          676           13    1.1801322    277.67425    284.66551 
   15800    50.025791     154035.6          676           13    1.1801322    279.51557    285.33115 
   15900    50.018448    153511.38          676           13    1.1801322    278.29276    284.10748 
   16000    45.394848    152968.93          676           13    1.1801322    277.09474    282.37197 
   16100    46.006847    152649.47          676           13    1.1801322    276.33146    281.67983 
   16200    39.575046    153217.24          676           13    1.1801322    277.79262    282.39329 
   16300    52.847152    153386.55          676           13    1.1801322    277.93981    284.08337 
   16400    66.094049    153360.47          676           13    1.1801322    277.64112    285.32466 
   16500    53.438551     153587.2          676           13    1.1801322    278.40609     284.6184 
   16600    45.816619     153154.5          676           13    1.1801322    277.52859    282.85484 
   16700    48.275133    152591.67          676           13    1.1801322    276.15354     281.7656 
   16800    49.001305    152687.34          676           13    1.1801322    276.36641    282.06289 
   16900    47.346864    153389.38          676           13    1.1801322    278.05401    283.55816 
   17000    54.340654    153734.28          676           13    1.1801322    278.73849    285.05568 
   17100     57.22895    153573.62          676           13    1.1801322    278.30881    284.96176 
   17200    43.761417    153452.76          676           13    1.1801322    278.26552    283.35285 
   17300    49.464092     152655.5          676           13    1.1801322    276.28634    282.03662 
   17400    40.299877    152972.74          676           13    1.1801322    277.19639    281.88131 
   17500    41.724003    153405.51          676           13    1.1801322    278.19516    283.04564 
   17600    54.028796    153608.55          676           13    1.1801322    278.44338    284.72431 
   17700    57.098382    153681.06          676           13    1.1801322    278.55588    285.19365 
   17800    54.404511    153249.84          676           13    1.1801322     277.5934    283.91801 
   17900    44.021723    153008.76          676           13    1.1801322    277.21841      282.336 
   18000    40.870921    152900.26          676           13    1.1801322     277.0206    281.77191 
   18100    51.974907    152774.67          676           13    1.1801322    276.52002    282.56219 
   18200    49.157597     153578.5          676           13    1.1801322    278.46518    284.17982 
   18300     63.50661     153426.8          676           13    1.1801322    277.84794    285.23069 
   18400    53.389062    153518.29          676           13    1.1801322     278.2433    284.44986 
   18500    48.177925       153027          676           13    1.1801322    277.18786    282.78862 
   18600    38.516183    153009.94          676           13    1.1801322    277.31946    281.79703 
   18700    43.308658    152972.47          676           13    1.1801322    277.15081    282.18551 
   18800    54.349122    153162.02          676           13    1.1801322    277.38092    283.69909 
   18900     61.41733    153445.88          676           13    1.1801322    277.92845    285.06831 
   19000    42.485992    154127.92          676           13    1.1801322    279.87842    284.81748 
   19100    51.736709    153102.66          676           13    1.1801322    277.29079    283.30527 
   19200    48.564938    152686.55          676           13    1.1801322    276.37361    282.01937 
   19300    45.046863    152810.86          676           13    1.1801322    276.72835    281.96512 
   19400    47.084741    153221.89          676           13    1.1801322    277.66643    283.14011 
   19500    54.457846    153587.01          676           13    1.1801322    278.38505    284.71587 
   19600    59.506248    153526.14          676           13    1.1801322    278.15119    285.06889 
   19700    53.243757    153244.38          676           13    1.1801322    277.60164    283.79131 
   19800    50.651072     152738.1          676           13    1.1801322    276.45818    282.34645 
   19900    43.183826    152852.55          676           13    1.1801322    276.86983    281.89002 
   20000    40.394951    153317.03          676           13    1.1801322    278.01301    282.70899 
   20100    58.282278    153250.76          676           13    1.1801322    277.52478    284.30018 
   20200    63.443222    153391.94          676           13    1.1801322    277.75884    285.13421 
   20300    51.337382    153525.47          676           13    1.1801322    278.29184    284.25989 
   20400    48.307142     152980.8          676           13    1.1801322    277.07193    282.68771 
   20500    41.269701    152934.21          676           13    1.1801322    277.08829    281.88596 
   20600    54.240543    152594.14          676           13    1.1801322    276.05038    282.35593 
   20700    55.739643    153141.72          676           13    1.1801322    277.30855    283.78837 
   20800    63.106724     153359.5          676           13    1.1801322      277.694    285.03025 
   20900    56.080446     153503.2          676           13    1.1801322    278.15724    284.67668 
   21000    52.331644    153021.11          676           13    1.1801322    277.09884    283.18247 
   21100    47.367337    152737.47          676           13    1.1801322    276.51887     282.0254 
   21200    47.872851    152744.61          676           13    1.1801322    276.52328    282.08858 
   21300    55.803135    152946.84          676           13    1.1801322    276.85766    283.34486 
   21400    45.405078     153969.7          676           13    1.1801322    279.46023    284.73864 
   21500    53.023619    153727.08          676           13    1.1801322    278.75535    284.91944 
   21600    45.099277    153504.99          676           13    1.1801322    278.37339    283.61625 
   21700    44.693927    152945.56          676           13    1.1801322     277.0608    282.25654 
   21800    41.066081     152949.9          676           13    1.1801322    277.13617    281.91017 
   21900    38.151495    153447.73          676           13    1.1801322    278.36478    282.79995 
   22000    48.243644    153697.79          676           13    1.1801322    278.77121    284.37961 
   22100    53.080527    153798.45          676           13    1.1801322    278.91137    285.08207 
   22200    59.804558    153113.82          676           13    1.1801322    277.17872     284.1311 
   22300    45.690663    153052.74          676           13    1.1801322    277.28795    282.59956 
   22400    47.841266    152666.55          676           13    1.1801322    276.34079    281.90241 
   22500    48.796745    152872.03          676           13    1.1801322    276.81239    282.48509 
   22600    52.380491     153337.2          676           13    1.1801322    277.83202    283.92134 
   22700    68.854037    153131.37          676           13    1.1801322    277.04921     285.0536 
   22800    58.853388    153344.35          676           13    1.1801322    277.72863    284.57043 
   22900    56.886582     152803.2          676           13    1.1801322    276.49694     283.1101 
   23000    38.634514    153115.61          676           13    1.1801322    277.56813    282.05945 
   23100    41.345019     153064.4          676           13    1.1801322    277.40111    282.20753 
   23200    52.056734    153134.81          676           13    1.1801322    277.36887    283.42054 
   23300    53.375767    153647.13          676           13    1.1801322     278.5446    284.74961 
   23400    59.699252    153416.99          676           13    1.1801322    277.89657    284.83671 
   23500    38.280963    153750.15          676           13    1.1801322    279.07115    283.52137 
   23600    42.925958    153018.51          676           13    1.1801322    277.26729     282.2575 
   23700     39.97444    153037.76          676           13    1.1801322    277.36116    282.00826 
   23800    46.836387     153138.8          676           13    1.1801322    277.47218    282.91698 
   23900    49.189711    153655.68          676           13    1.1801322    278.65484    284.37323 
   24000    49.234209    153889.53          676           13    1.1801322     279.1995    284.92305 
   24100    52.625012    153347.53          676           13    1.1801322    277.86431    283.98205 
   24200    39.888197    153289.06          676           13    1.1801322    277.95553    282.59259 
   24300    46.393409    152765.93          676           13    1.1801322    276.60934    282.00265 
   24400     42.89082    153151.39          676           13    1.1801322    277.57841    282.56454 
   24500    54.816239    153257.06          676           13    1.1801322    277.60878    283.98125 
   24600      55.5375    153648.74          676           13    1.1801322    278.51605    284.97238 
   24700    53.383851    153512.61          676           13    1.1801322    278.23025    284.43621 
   24800    55.672559    152819.16          676           13    1.1801322    276.55604    283.02807 
   24900    41.333618    153012.99          676           13    1.1801322    277.27399    282.07909 
   25000    45.394772    152925.54          676           13    1.1801322    277.00139    282.27861 
   25100    48.425198    153309.91          676           13    1.1801322    277.84168    283.47119 
   25200     57.90894    153459.37          676           13    1.1801322    278.01847    284.75047 
   25300    57.864325    153443.86          676           13    1.1801322     277.9899    284.71672 
   25400      45.5257    153414.25          676           13    1.1801322    278.14019    283.43262 
   25500    52.233039     152651.2          676           13    1.1801322    276.22452     282.2967 
   25600    40.497283    153075.93          676           13    1.1801322    277.43838    282.14626 
   25700    46.065705    153240.84          676           13    1.1801322    277.72893    283.08414 
   25800    55.205568    153433.66          676           13    1.1801322    278.01254    284.43027 
   25900    58.877895    153471.77          676           13    1.1801322    278.03262    284.87727 
   26000    54.732366    153226.59          676           13    1.1801322    277.53644    283.89916 
   26100    38.990456    153311.74          676           13    1.1801322    278.01917    282.55187 
   26200    47.151334     152759.1          676           13    1.1801322    276.57372    282.05514 
   26300     49.54744    152941.33          676           13    1.1801322    276.95061    282.71058 
   26400    49.128617    153529.23          676           13    1.1801322    278.34449    284.05577 
   26500    54.221855    153655.57          676           13    1.1801322    278.55427    284.85764 
   26600    56.329607    153321.45          676           13    1.1801322    277.71659      284.265 
   26700    47.752035    153103.45          676           13    1.1801322    277.37436    282.92561 
   26800    35.216923    153281.19          676           13    1.1801322    278.02434    282.11837 
   26900    50.998795     152759.6          676           13    1.1801322    276.50852    282.43721 
   27000    49.535948    153334.72          676           13    1.1801322    277.88303    283.64166 
   27100    48.047124    153826.25          676           13    1.1801322    279.07784    284.66339 
   27200    43.175491    153955.54          676           13    1.1801322    279.46632    284.48554 
   27300    54.061656     153003.7          676           13    1.1801322    277.01785    283.30261 
   27400    45.736252    152940.84          676           13    1.1801322    277.02671    282.34362 
   27500    40.429609    153141.34          676           13    1.1801322    277.59475    282.29475 
   27600    50.449247    153127.71          676           13    1.1801322    277.37745    283.24225 
   27700    43.061653    153927.57          676           13    1.1801322    279.39784    284.40383 
   27800    55.578255    153525.38          676           13    1.1801322    278.21973    284.68079 
   27900    54.606997     153152.4          676           13    1.1801322    277.35853    283.70668 
   28000    49.464543    152885.51          676           13    1.1801322    276.82124    282.57158 
   28100     48.74068    152768.54          676           13    1.1801322    276.56285    282.22903 
   28200    39.486408    153442.42          676           13    1.1801322    278.31571    282.90607 
   28300    58.316578     153178.5          676           13    1.1801322    277.35541    284.13481 
   28400    58.582084    153439.32          676           13    1.1801322    277.95839    284.76865 
   28500    59.364782    153134.41          676           13    1.1801322    277.22355     284.1248 
   28600    48.008535    153066.88          676           13    1.1801322    277.28387    282.86494 
   28700    39.611568    153130.71          676           13    1.1801322    277.58226    282.18717 
   28800    48.459339    152914.11          676           13    1.1801322    276.91564    282.54912 
   28900    50.992306    153310.43          676           13    1.1801322    277.79441    283.72235 
   29000    51.191119    153692.15          676           13    1.1801322    278.69847    284.64952 
   29100    54.490004    153450.79          676           13    1.1801322    278.07385     284.4084 
   29200    46.467341    153281.43          676           13    1.1801322     277.8133     283.2152 
   29300    43.078698    153024.93          676           13    1.1801322    277.27503      282.283 
   29400    44.937957    152975.71          676           13    1.1801322    277.11691    282.34102 
   29500    48.819118    153242.62          676           13    1.1801322     277.6801     283.3554 
   29600    52.889266    153540.83          676           13    1.1801322    278.30489    284.45335 
   29700    51.415195    153659.61          676           13    1.1801322    278.61633    284.59343 
   29800    45.511922    153461.19          676           13    1.1801322    278.25057    283.54141 
   29900    49.502055    152846.32          676           13    1.1801322     276.7358     282.4905 
   30000    48.317798    152796.42          676           13    1.1801322    276.63231    282.24933 
   30100    48.602145    153109.65          676           13    1.1801322    277.36381    283.01389 
   30200    51.203513    153509.69          676           13    1.1801322    278.26469    284.21718 
   30300    59.305504    153402.79          676           13    1.1801322     277.8528    284.74716 
   30400    54.188966    153284.96          676           13    1.1801322    277.67148    283.97103 
   30500    51.789389    152876.25          676           13    1.1801322    276.75805    282.77865 
   30600    38.943542    153175.67          676           13    1.1801322    277.69878    282.22603 
   30700    49.794563    152929.19          676           13    1.1801322    276.91942    282.70812 
   30800    52.077479    153330.05          676           13    1.1801322    277.82146    283.87555 
   30900    49.196945    153796.14          676           13    1.1801322    278.97851    284.69773 
   31000    58.687977    153233.27          676           13    1.1801322     277.4688    284.29137 
   31100    43.939145    153323.27          676           13    1.1801322    277.96501    283.07301 
   31200    44.104396    152971.28          676           13    1.1801322    277.12714    282.25435 
   31300    41.043821    153166.69          676           13    1.1801322    277.64756    282.41897 
   31400    48.587352    153310.71          676           13    1.1801322    277.85093    283.49929 
   31500    59.514703    153313.29          676           13    1.1801322    277.64691    284.56559 
   31600    51.265192    153639.31          676           13    1.1801322    278.57511    284.53477 
   31700    44.845985    153438.88          676           13    1.1801322     278.2191    283.43252 
   31800    44.079231    153039.27          676           13    1.1801322    277.28642     282.4107 
   31900    42.701867    153029.33          676           13    1.1801322    277.28724     282.2514 
   32000    48.112556    153166.92          676           13    1.1801322    277.51339    283.10655 
   32100    52.499274    153507.16          676           13    1.1801322    278.23186    284.33498 
   32200    56.555857     153517.5          676           13    1.1801322    278.17441    284.74912 
   32300    47.418495    153520.48          676           13    1.1801322    278.35772     283.8702 
   32400    40.204591    153316.96          676           13    1.1801322    278.01438    282.68823 
   32500    52.050666    152624.42          676           13    1.1801322    276.16148    282.21245 
   32600    45.140949    153139.98          676           13    1.1801322    277.50545    282.75316 
   32700    46.649791    153577.08          676           13    1.1801322    278.50941    283.93252 
   32800    57.806257    153429.95          676           13    1.1801322    277.96175    284.68182 
   32900    47.231104     153641.2          676           13    1.1801322    278.64801     284.1387 
   33000     54.93637    152836.96          676           13    1.1801322    276.61462    283.00106 
   33100    49.649633    152767.41          676           13    1.1801322    276.54157    282.31342 
   33200    45.356917    153035.28          676           13    1.1801322    277.25525    282.52807 
   33300    50.620395    153268.63          676           13    1.1801322      277.713     283.5977 
   33400    53.886973    153547.83          676           13    1.1801322    278.30393    284.56838 
   33500    56.560445    153366.93          676           13    1.1801322    277.83013    284.40537 
   33600    55.886765    152920.17          676           13    1.1801322    276.78705    283.28398 
   33700     48.55994    152844.19          676           13    1.1801322    276.74389    282.38906 
   33800    44.456679    153010.21          676           13    1.1801322    277.21586    282.38402 
   33900    43.917641    153436.41          676           13    1.1801322    278.22979    283.33529 
   34000    62.406564    153160.04          676           13    1.1801322    277.23129    284.48615 
   34100    57.977563    153394.69          676           13    1.1801322    277.87286    284.61284 
   34200     50.66268    153191.77          676           13    1.1801322    277.53803    283.42765 
   34300     40.06341    153160.15          676           13    1.1801322    277.64925    282.30669 
   34400    43.024199    153051.21          676           13    1.1801322    277.34112    282.34275 
   34500    58.415675     153169.4          676           13    1.1801322    277.33253    284.12344 
   34600    57.162011    153708.11          676           13    1.1801322    278.63137    285.27654 
   34700    50.676817    153567.04          676           13    1.1801322    278.41306    284.30432 
   34800    42.050838     153421.7          676           13    1.1801322    278.22556    283.11404 
   34900    51.299297     152830.9          676           13    1.1801322    276.65917    282.62279 
   35000     46.32161    153160.19          676           13    1.1801322    277.52558    282.91054 
   35100    51.159693    153948.05          676           13    1.1801322    279.29703    285.24442 
   35200    63.976997     153522.6          676           13    1.1801322    278.05065    285.48808 
   35300    48.680679    153550.43          676           13    1.1801322    278.40299    284.06219 
   35400     50.82884    153106.89          676           13    1.1801322     277.3247    283.23364 
   35500    50.116801    153060.33          676           13    1.1801322    277.22057    283.04672 
   35600    54.799689     152969.4          676           13    1.1801322    276.92508    283.29563 
   35700    60.341025    153380.58          676           13    1.1801322    277.79151    284.80625 
   35800    66.935729    153598.35          676           13    1.1801322    278.18303    285.96442 
   35900    60.036681    153212.58          676           13    1.1801322     277.4078    284.38716 
   36000    49.804719    153155.77          676           13    1.1801322    277.45835    283.24823 
   36100    54.664717    152882.68          676           13    1.1801322    276.72897    283.08383 
   36200      48.1994    153238.78          676           13    1.1801322    277.68323    283.28649 
   36300    52.611036    153458.37          676           13    1.1801322    278.12564    284.24176 
   36400    58.801044    153819.68          676           13    1.1801322    278.85489     285.6906 
   36500    59.276206    153427.44          676           13    1.1801322     277.9241    284.81505 
   36600    39.486577    153430.73          676           13    1.1801322    278.29732    282.88769 
   36700    47.194769    153051.83          676           13    1.1801322    277.25859    282.74506 
   36800    47.946453    153247.88          676           13    1.1801322    277.71446    283.28831 
   36900    39.976178    154081.98          676           13    1.1801322    279.82346    284.47075 
   37000    67.641399    153385.76          676           13    1.1801322    277.67472    285.53814 
   37100    53.628452    153480.63          676           13    1.1801322    278.14676    284.38115 
   37200    51.472778     152796.1          676           13    1.1801322    276.58532    282.56912 
   37300    39.861069    153214.17          676           13    1.1801322    277.77651    282.41042 
   37400    56.396698    152918.03          676           13    1.1801322    276.77914    283.33535 
   37500    66.391114    153089.08          676           13    1.1801322    276.99223     284.7103 
   37600    55.470081    153562.83          676           13    1.1801322    278.30935    284.75783 
   37700    51.327857    152917.31          676           13    1.1801322    276.86385     282.8308 
   37800    40.443366    152922.22          676           13    1.1801322    277.07632    281.77793 
   37900    45.593738    153016.86          676           13    1.1801322    277.20287    282.50321 
   38000    48.420722    153457.14          676           13    1.1801322    278.19171     283.8207 
   38100    47.950871    153753.73          676           13    1.1801322    278.89442    284.46879 
   38200    60.823721     152982.3          676           13    1.1801322    276.84498    283.91583 
   38300    40.652121    153008.62          676           13    1.1801322    277.27688    282.00275 
   38400    41.939075    152864.49          676           13    1.1801322    276.92535    281.80084 
   38500    43.608732    153140.35          676           13    1.1801322    277.53861    282.60819 
   38600    58.475858    152864.29          676           13    1.1801322    276.61383    283.41174 
   38700    59.022956    152997.34          676           13    1.1801322    276.91512    283.77664 
   38800    50.439014    153316.01          676           13    1.1801322     277.8273    283.69092 
   38900    48.455767    153084.19          676           13    1.1801322    277.32065    282.95371 
   39000    40.299079    152742.28          676           13    1.1801322     276.6569    281.34174 
   39100    47.083459    152567.37          676           13    1.1801322    276.12434    281.59787 
   39200    53.493021    152954.76          676           13    1.1801322    276.91229    283.13094 
   39300    50.318165    153362.75          676           13    1.1801322    277.93704    283.78661 
   39400    43.700535    153657.71          676           13    1.1801322    278.75233    283.83259 
   39500    56.909946    152889.11          676           13    1.1801322    276.69655    283.31242 
   39600    38.137816    153005.88          676           13    1.1801322    277.31823    281.75181 
   39700    39.957152    152754.01          676           13    1.1801322    276.69723    281.34231 
   39800     46.83552    153124.06          676           13    1.1801322    277.43674    282.88145 
   39900    50.717171    153326.87          676           13    1.1801322    277.84507    283.74102 
   40000    48.209962    153422.71          676           13    1.1801322    278.12131    283.72579 
   40100    47.684125    153290.78          676           13    1.1801322    277.81233    283.35568 
   40200      51.8993    152770.89          676           13    1.1801322    276.51018    282.54356 
   40300    40.169799    152882.97          676           13    1.1801322    276.99734    281.66714 
   40400    38.824342    153025.69          676           13    1.1801322    277.35452    281.86791 
   40500    51.493647    153335.87          676           13    1.1801322    277.84346    283.82968 
   40600    57.719603    153332.21          676           13    1.1801322    277.72238    284.43237 
   40700    48.546166    153472.75          676           13    1.1801322    278.21502    283.85859 
   40800    48.917379    152872.53          676           13    1.1801322    276.80353    282.49025 
   40900    37.938468    152998.97          676           13    1.1801322    277.30113    281.71154 
   41000    54.260104    152728.03          676           13    1.1801322    276.36737    282.67519 
   41100    53.570665    153618.41          676           13    1.1801322    278.47428    284.70196 
   41200    56.020439    153484.89          676           13    1.1801322    278.12436    284.63682 
   41300     48.91054    153204.56          676           13    1.1801322    277.58264    283.26857 
   41400    56.522601    152530.19          676           13    1.1801322     275.8638    282.43465 
   41500    39.426318    153306.96          676           13    1.1801322    278.00441    282.58778 
   41600     51.36679    153613.31          676           13    1.1801322    278.51254    284.48402 
   41700    64.891886    153532.53          676           13    1.1801322    278.06497    285.60876 
   41800    57.867872    153327.76          676           13    1.1801322    277.71152    284.43875 
   41900    48.124694    153183.39          676           13    1.1801322     277.5554    283.14997 
   42000    38.972215    153360.16          676           13    1.1801322    278.13549    282.66607 
   42100    45.066837    153236.99          676           13    1.1801322    277.73637    282.97546 
   42200    59.722323    153531.02          676           13    1.1801322    278.15717    285.09998 
   42300    58.598757    153841.31          676           13    1.1801322    278.90456    285.71676 
   42400    45.767192    153753.73          676           13    1.1801322    278.94795    284.26846 
   42500    45.196829    153420.38          676           13    1.1801322    278.16647    283.42067 
   42600    50.036224    153083.83          676           13    1.1801322    277.28706    283.10385 
   42700    55.442131    152855.59          676           13    1.1801322    276.64954    283.09478 
   42800    50.724407    153381.84          676           13    1.1801322    277.97205    283.86884 
   42900      60.5947    153578.31          676           13    1.1801322    278.26795    285.31218 
   43000    52.548397    153733.79          676           13    1.1801322    278.77464    284.88348 
   43100    55.791262    152827.38          676           13    1.1801322    276.57271    283.05853 
   43200    55.021986    152690.79          676           13    1.1801322    276.26316    282.65955 
   43300    47.282626    153163.09          676           13    1.1801322    277.52558    283.02226 
   43400     52.55679    153350.25          676           13    1.1801322    277.86331    283.97312 
   43500    62.808914    153698.05          676           13    1.1801322    278.49313    285.79477 
   43600    62.140534    154127.22          676           13    1.1801322    279.52051    286.74445 
   43700    51.943298    153307.52          676           13    1.1801322    277.77484    283.81333 
   43800    50.518867    152993.87          676           13    1.1801322    277.06143    282.93433 
   43900    48.166756    153000.63          676           13    1.1801322    277.11758    282.71704 
   44000    44.846629    153342.52          676           13    1.1801322    277.98938    283.20287 
   44100    49.424672     153660.5          676           13    1.1801322    278.65146    284.39715 
   44200    70.093176    153109.71          676           13    1.1801322    276.97991    285.12835 
   44300    51.423954    153235.09          676           13    1.1801322    277.60854    283.58666 
   44400    47.582511    152780.26          676           13    1.1801322    276.61859    282.15013 
   44500    42.008624    153142.88          676           13    1.1801322    277.57013     282.4537 
   44600    56.909684    153051.46          676           13    1.1801322    277.08304    283.69888 
   44700    60.547828    153254.24          676           13    1.1801322    277.49026    284.52904 
   44800    58.137124    153220.42          676           13    1.1801322    277.45666    284.21519 
   44900    45.602072    153513.14          676           13    1.1801322    278.37815    283.67946 
   45000    50.862223    153198.11          676           13    1.1801322    277.54299    283.45581 
   45100    48.078731     153234.7          676           13    1.1801322    277.67457     283.2638 
   45200     44.04688    153311.18          676           13    1.1801322    277.93385    283.05437 
   45300    41.999526    153348.18          676           13    1.1801322    278.05771    282.94022 
   45400    44.902519    153399.03          676           13    1.1801322    278.12589    283.34588 
   45500    51.738626    153492.54          676           13    1.1801322    278.21557    284.23027 
   45600    48.294966    153860.97          676           13    1.1801322    279.15265    284.76702 
   45700    50.069747    153357.09          676           13    1.1801322     277.9305    283.75118 
   45800    51.248285    152652.92          676           13    1.1801322    276.24982    282.20752 
   45900    41.286334    153077.16          676           13    1.1801322    277.43107    282.23067 
   46000    48.736509    153188.98          676           13    1.1801322     277.5629     283.2286 
   46100    54.239542    153327.31          676           13    1.1801322    277.78597    284.09141 
   46200    56.198446     153219.8          676           13    1.1801322    277.48779    284.02095 
   46300    62.573207     152781.3          676           13    1.1801322    276.34182    283.61606 
   46400    39.349736    153472.88          676           13    1.1801322    278.39698    282.97145 
   46500    47.585431    152818.65          676           13    1.1801322    276.70691    282.23879 
   46600    42.476349    152684.91          676           13    1.1801322    276.48058    281.41853 
   46700    37.634464    153067.08          676           13    1.1801322    277.47114     281.8462 
   46800    54.315887    153142.88          676           13    1.1801322    277.34358    283.65788 
   46900    45.549825    153721.79          676           13    1.1801322     278.8706    284.16584 
   47000    43.064382    153668.03          676           13    1.1801322    278.78875    283.79506 
   47100    47.840031    152915.99          676           13    1.1801322    276.92846    282.48994 
   47200    40.779295    152750.16          676           13    1.1801322    276.66492    281.40558 
   47300    46.482121    152814.95          676           13    1.1801322    276.71516    282.11878 
   47400     50.30471    153515.11          676           13    1.1801322    278.29515    284.14315 
   47500    55.995012    153265.67          676           13    1.1801322    277.60096    284.11047 
   47600    60.781942    152745.52          676           13    1.1801322    276.28815    283.35415 
   47700    43.721019    153105.01          676           13    1.1801322    277.44622    282.52886 
   47800    47.731262    152826.24          676           13    1.1801322    276.72126    282.27009 
   47900     52.58403    153182.87          676           13    1.1801322    277.47129    283.58426 
   48000    63.608095    153345.48          676           13    1.1801322    277.64937    285.04391 
   48100    53.947111    153519.46          676           13    1.1801322    278.23507    284.50651 
   48200    50.723114    153089.42          676           13    1.1801322    277.28955     283.1862 
   48300    47.385886    153066.61          676           13    1.1801322    277.29149    282.80018 
   48400    49.173029    153092.08          676           13    1.1801322    277.32369    283.04013 
   48500    43.312153    153507.68          676           13    1.1801322    278.40603    283.44114 
   48600    54.440508     153289.3          676           13    1.1801322    277.69247    284.02127 
   48700    52.525025    154019.14          676           13    1.1801322    279.44375    285.54987 
   48800    62.364667    153820.08          676           13    1.1801322    278.79517    286.04517 
   48900    44.919843    153603.23          676           13    1.1801322    278.60437    283.82637 
   49000    48.914978    153092.13          676           13    1.1801322    277.32612    283.01256 
   49100     53.64159    152862.01          676           13    1.1801322    276.70012    282.93604 
   49200    39.227375    153684.39          676           13    1.1801322    278.89934    283.45958 
   49300     64.63819    153303.76          676           13    1.1801322    277.53742    285.05171 
   49400    62.294384    153648.44          676           13    1.1801322    278.38932    285.63114 
   49500    51.469845    153131.26          676           13    1.1801322    277.36825    283.35171 
   49600    47.018042    153002.11          676           13    1.1801322     277.1462    282.61212 
   49700    49.131062    153052.37          676           13    1.1801322    277.22491    282.93648 
   49800    52.187452    153356.16          676           13    1.1801322    277.88504    283.95192 
   49900    57.052457    153560.94          676           13    1.1801322    278.27652    284.90896 
   50000    62.745993    153229.34          676           13    1.1801322    277.38325    284.67758 
   50096    45.999586    153051.09          676           13    1.1801322    277.27539    282.62292 
Loop time of 1.88524 on 1 procs for 50000 steps with 40 atoms

Performance: 2291.485 ns/day, 0.010 hours/ns, 26521.822 timesteps/s
92.4% CPU use with 1 MPI tasks x no OpenMP threads

MPI task timing breakdown:
Section |  min time  |  avg time  |  max time  |%varavg| %total
---------------------------------------------------------------
Pair    | 1.1862     | 1.1862     | 1.1862     |   0.0 | 62.92
Neigh   | 0.034129   | 0.034129   | 0.034129   |   0.0 |  1.81
Comm    | 0.29842    | 0.29842    | 0.29842    |   0.0 | 15.83
Output  | 0.15851    | 0.15851    | 0.15851    |   0.0 |  8.41
Modify  | 0.14324    | 0.14324    | 0.14324    |   0.0 |  7.60
Other   |            | 0.0648     |            |       |  3.44

Nlocal:             40 ave          40 max          40 min
Histogram: 1 0 0 0 0 0 0 0 0 0
Nghost:            592 ave         592 max         592 min
Histogram: 1 0 0 0 0 0 0 0 0 0
Neighs:           1227 ave        1227 max        1227 min
Histogram: 1 0 0 0 0 0 0 0 0 0

Total # of neighbors = 1227
Ave neighs/atom = 30.675
Neighbor list builds = 441
Dangerous builds = 18

write_data graphene_single_layer_LJ_40_C.data
System init for write_data ...
  generated 0 of 0 mixed pair_coeff terms from geometric mixing rule

Total wall time: 0:00:02
Footer
© 2022 GitHub, Inc.
Footer navigation

    Terms
    Privacy
    Security
    Status
    Docs
    Contact GitHub
    Pricing
    API
    Training
    Blog
    About

Graphene-Finite-Size-Study/graphene_single_layer_LJ_40C_log.txt at main · sonalij3/Graphene-Finite-Size-Study
