ITEM: TIMESTEP
0
ITEM: NUMBER OF ATOMS
40
ITEM: BOX BOUNDS pp pp pp
-2.0000000000000000e+00 1.1000000000000000e+01
-2.0000000000000000e+00 1.1000000000000000e+01
-2.0000000000000000e+00 2.0000000000000000e+00
ITEM: ATOMS id type x y z
1 1 0 0 0
2 1 0.71 1.22976 0
3 1 2.13 1.22976 0
4 1 2.84 0 0
5 1 4.26 0 0
7 1 0 2.45951 0
8 1 0.71 3.68927 0
9 1 2.13 3.68927 0
10 1 2.84 2.45951 0
11 1 4.26 2.45951 0
6 1 4.97 1.22976 0
12 1 4.97 3.68927 0
19 1 6.39 1.22976 0
20 1 7.1 0 0
21 1 8.52 0 0
22 1 9.23 1.22976 0
23 1 6.39 3.68927 0
24 1 7.1 2.45951 0
25 1 8.52 2.45951 0
26 1 9.23 3.68927 0
13 1 0 4.91902 0
14 1 0.71 6.14878 0
15 1 2.13 6.14878 0
16 1 2.84 4.91902 0
17 1 4.26 4.91902 0
31 1 0 7.37854 0
32 1 0.71 8.60829 0
33 1 2.13 8.60829 0
34 1 2.84 7.37854 0
35 1 4.26 7.37854 0
18 1 4.97 6.14878 0
27 1 6.39 6.14878 0
28 1 7.1 4.91902 0
29 1 8.52 4.91902 0
30 1 9.23 6.14878 0
36 1 4.97 8.60829 0
37 1 6.39 8.60829 0
38 1 7.1 7.37854 0
39 1 8.52 7.37854 0
40 1 9.23 8.60829 0
ITEM: TIMESTEP
99
ITEM: NUMBER OF ATOMS
40
ITEM: BOX BOUNDS pp pp pp
-2.0000000000000000e+00 1.1000000000000000e+01
-2.0000000000000000e+00 1.1000000000000000e+01
-2.0000000000000000e+00 2.0000000000000000e+00
ITEM: ATOMS id type x y z
1 1 -0.230809 -0.106009 -1.29924e-19
2 1 0.602191 1.06295 -7.37676e-20
3 1 2.1404 1.13776 5.34416e-20
4 1 2.96143 0.00839199 -7.20229e-20
5 1 4.16399 0.00732054 -1.82899e-19
7 1 0.107894 2.37104 2.66229e-19
8 1 0.579094 3.69939 -4.99957e-19
9 1 2.10779 3.6427 9.83277e-20
10 1 2.80589 2.4088 1.73904e-19
11 1 4.27209 2.42876 1.664e-19
6 1 4.99741 1.17046 -5.80779e-20
12 1 4.96289 3.67557 7.45993e-19
19 1 6.45956 1.1938 2.09782e-19
20 1 7.42581 0.113491 -2.44237e-19
21 1 8.6175 -0.175311 1.44393e-19
22 1 9.07113 0.942017 -5.24128e-19
23 1 6.42934 3.7271 -5.40048e-19
24 1 7.10566 2.45446 -3.65513e-19
25 1 8.60254 2.36225 1.19766e-20
26 1 9.1626 3.6002 -5.15546e-19
13 1 0.0368621 5.01195 1.43867e-19
14 1 0.643385 6.21147 -4.95294e-19
15 1 2.1259 6.14024 -4.44775e-20
16 1 2.80488 4.87433 -5.41461e-19
17 1 4.2717 4.93315 -4.99156e-19
31 1 0.184874 7.69408 -1.41622e-19
32 1 0.599917 8.81933 3.88402e-20
33 1 1.80979 8.47729 -2.49221e-20
34 1 2.75888 7.42953 3.74574e-19
35 1 4.23192 7.43906 -9.60624e-21
18 1 4.95814 6.19081 -3.53206e-19
27 1 6.42232 6.19643 3.81017e-19
28 1 7.12581 4.96601 -3.54292e-19
29 1 8.64881 4.91321 -5.52967e-20
30 1 9.11728 6.23662 -5.97297e-20
36 1 5.06868 8.58866 7.85612e-20
37 1 6.27178 8.60482 1.23727e-19
38 1 7.09036 7.46953 1.60302e-19
39 1 8.62541 7.54165 -4.81998e-19
40 1 9.45891 8.70253 9.0932e-20
ITEM: TIMESTEP
1000
ITEM: NUMBER OF ATOMS
40
ITEM: BOX BOUNDS pp pp pp
-2.0000000000000000e+00 1.1000000000000000e+01
-2.0000000000000000e+00 1.1000000000000000e+01
-2.0000000000000000e+00 2.0000000000000000e+00
ITEM: ATOMS id type x y z
1 1 -0.416053 0.266915 -8.31929e-19
2 1 0.685658 1.12861 1.36436e-18
3 1 2.23198 1.05034 1.45536e-18
4 1 2.99806 -0.155388 1.66666e-18
5 1 4.20338 -0.0222675 1.831e-18
7 1 0.262687 2.44989 3.2827e-19
8 1 0.606824 3.7069 7.26309e-19
9 1 2.08184 3.57491 1.87522e-18
10 1 2.8642 2.31334 1.94064e-18
11 1 4.29476 2.3943 1.73761e-18
6 1 5.02854 1.15362 1.05529e-18
12 1 4.95051 3.64201 7.27479e-19
19 1 6.49499 1.17592 1.08525e-19
20 1 7.43224 0.126399 6.95148e-19
21 1 8.66293 -0.267487 7.74252e-19
22 1 9.00805 0.903353 1.98117e-20
23 1 6.43058 3.71935 1.35645e-18
24 1 7.12896 2.466 4.54363e-19
25 1 8.5959 2.32916 3.3013e-19
26 1 9.33705 3.58963 2.85629e-20
13 1 -0.149735 5.09031 7.62613e-19
14 1 0.660284 6.27361 3.82886e-19
15 1 2.07872 6.11909 2.96747e-19
16 1 2.78084 4.84233 8.05404e-19
17 1 4.23452 4.89766 3.93e-19
31 1 0.261815 7.79336 8.50947e-19
32 1 0.639098 8.9421 1.00736e-18
33 1 1.86511 8.45664 6.37467e-19
34 1 2.72785 7.42209 3.58367e-19
35 1 4.20132 7.41204 7.49369e-20
18 1 4.9277 6.15045 -2.49259e-19
27 1 6.38496 6.18646 -1.20172e-19
28 1 7.12236 4.97167 2.78896e-19
29 1 8.6168 4.93528 3.42974e-19
30 1 9.29533 6.1934 4.44943e-19
36 1 5.01759 8.57032 3.21156e-20
37 1 6.20083 8.60077 -2.29513e-19
38 1 7.04702 7.45758 -9.92521e-20
39 1 8.55981 7.57037 6.08068e-19
40 1 9.2447 8.7348 5.89922e-20
ITEM: TIMESTEP
2000
ITEM: NUMBER OF ATOMS
40
ITEM: BOX BOUNDS pp pp pp
-2.0000000000000000e+00 1.1000000000000000e+01
-2.0000000000000000e+00 1.1000000000000000e+01
-2.0000000000000000e+00 2.0000000000000000e+00
ITEM: ATOMS id type x y z
1 1 -0.14303 -0.0932369 3.22302e-18
2 1 0.611572 1.03726 1.05662e-18
3 1 2.17227 1.13377 -1.31303e-18
4 1 2.97068 -0.0229552 -1.64377e-18
5 1 4.18171 0.0295258 -2.37665e-18
7 1 -0.111621 2.41671 1.74541e-18
8 1 0.630022 3.65703 1.62522e-18
9 1 2.09452 3.64138 2.42333e-19
10 1 2.83275 2.3863 -4.39849e-19
11 1 4.28785 2.44423 -7.77838e-19
6 1 4.98182 1.18942 -1.63305e-18
12 1 4.99438 3.70445 1.1578e-19
19 1 6.46318 1.17329 -1.36947e-18
20 1 7.34715 0.107246 -1.69791e-18
21 1 8.56236 -0.371307 -2.27579e-19
22 1 8.90553 0.783014 -1.42879e-19
23 1 6.45008 3.74841 4.15614e-20
24 1 7.12455 2.47712 2.50581e-19
25 1 8.54941 2.32166 3.77406e-19
26 1 9.33211 3.53654 5.56896e-19
13 1 -0.109674 5.02549 1.57703e-18
14 1 0.656959 6.26234 8.12044e-19
15 1 2.10599 6.17331 6.1099e-19
16 1 2.82075 4.89781 2.94454e-19
17 1 4.26961 4.94509 1.96712e-19
31 1 0.217968 7.79377 1.49949e-18
32 1 0.558143 8.87499 2.11317e-18
33 1 1.7629 8.44208 1.18141e-18
34 1 2.77566 7.47078 5.17368e-19
35 1 4.25852 7.44133 2.66484e-19
18 1 4.96361 6.19674 3.33817e-19
27 1 6.42565 6.23287 3.54973e-19
28 1 7.16885 4.99537 7.30164e-19
29 1 8.66063 4.92546 1.00201e-18
30 1 9.34379 6.18069 1.08314e-18
36 1 5.09116 8.58581 7.53826e-19
37 1 6.27711 8.62637 6.01928e-19
38 1 7.10756 7.49926 5.53608e-19
39 1 8.64248 7.57454 5.55494e-19
40 1 9.36503 8.7219 4.83449e-19
ITEM: TIMESTEP
3000
ITEM: NUMBER OF ATOMS
40
ITEM: BOX BOUNDS pp pp pp
-2.0000000000000000e+00 1.1000000000000000e+01
-2.0000000000000000e+00 1.1000000000000000e+01
-2.0000000000000000e+00 2.0000000000000000e+00
ITEM: ATOMS id type x y z
1 1 -0.0910756 -0.133865 1.41687e-18
2 1 0.588805 1.06341 1.34381e-18
3 1 2.15392 1.13248 -3.98181e-21
4 1 2.9268 -0.0211342 -2.55168e-19
5 1 4.10987 0.0682617 -2.385e-19
7 1 -0.0958947 2.41799 6.57654e-19
8 1 0.613513 3.69456 -9.76715e-19
9 1 2.08581 3.64998 -7.39197e-19
10 1 2.80493 2.40512 -4.26234e-19
11 1 4.26423 2.43231 -1.43041e-18
6 1 4.97613 1.17911 -1.00681e-18
12 1 4.966 3.68832 -1.48339e-18
19 1 6.46532 1.15588 -1.28547e-18
20 1 7.36215 0.12194 -8.96721e-19
21 1 8.57425 -0.350875 -2.43138e-19
22 1 8.94025 0.799086 -5.79582e-20
23 1 6.42009 3.72765 -1.23107e-18
24 1 7.12638 2.46555 -1.1482e-18
25 1 8.55209 2.33013 -3.64319e-19
26 1 9.32959 3.54835 -4.98097e-19
13 1 -0.0955461 5.046 -6.12263e-19
14 1 0.692881 6.29147 -1.45342e-18
15 1 2.13725 6.1698 -1.11709e-18
16 1 2.79569 4.89606 -1.08761e-18
17 1 4.25396 4.93561 -1.64045e-18
31 1 0.199603 7.82452 -1.3424e-18
32 1 0.681174 8.78985 -2.20309e-18
33 1 1.88026 8.51306 -1.43046e-18
34 1 2.78347 7.47149 -1.72795e-18
35 1 4.26906 7.43932 -1.93301e-18
18 1 4.97635 6.18084 -1.39895e-18
27 1 6.4302 6.20603 -1.0561e-18
28 1 7.15694 4.96455 -9.51365e-19
29 1 8.6265 4.92253 -9.21198e-19
30 1 9.32487 6.17621 -1.40893e-18
36 1 5.08599 8.60604 -2.31212e-18
37 1 6.27115 8.59768 -2.28566e-18
38 1 7.08843 7.47667 -1.57433e-18
39 1 8.62778 7.55655 -1.79037e-18
40 1 9.34083 8.7273 -1.32948e-18
ITEM: TIMESTEP
4000
ITEM: NUMBER OF ATOMS
40
ITEM: BOX BOUNDS pp pp pp
-2.0000000000000000e+00 1.1000000000000000e+01
-2.0000000000000000e+00 1.1000000000000000e+01
-2.0000000000000000e+00 2.0000000000000000e+00
ITEM: ATOMS id type x y z
1 1 -0.0909609 -0.127885 7.73823e-19
2 1 0.590076 1.05189 -1.48737e-18
3 1 2.13158 1.14755 -3.23294e-18
4 1 2.94482 0.00210326 -2.28635e-18
5 1 4.13747 0.00576998 -1.67074e-18
7 1 -0.112005 2.43331 -1.5689e-18
8 1 0.599231 3.6956 -2.18457e-18
9 1 2.08998 3.65035 -2.75704e-18
10 1 2.7925 2.41279 -3.74517e-18
11 1 4.25546 2.42763 -3.20224e-18
6 1 4.95849 1.17053 -2.82623e-18
12 1 4.96299 3.68652 -3.2982e-18
19 1 6.43054 1.15445 -3.44271e-18
20 1 7.34651 0.115967 -3.97129e-18
21 1 8.55567 -0.367098 -3.78231e-18
22 1 8.91521 0.79208 -4.3939e-18
23 1 6.41893 3.73605 -3.75026e-18
24 1 7.10953 2.45688 -3.6936e-18
25 1 8.54005 2.32178 -4.39853e-18
26 1 9.32741 3.53513 -4.02937e-18
13 1 -0.0845518 5.07191 -1.94378e-18
14 1 0.683125 6.29801 -1.71842e-18
15 1 2.11988 6.15632 -2.99949e-18
16 1 2.80425 4.89457 -2.74298e-18
17 1 4.27288 4.93706 -2.98675e-18
31 1 0.235153 7.79016 -1.28758e-18
32 1 0.672788 8.92589 -4.93367e-21
33 1 1.89836 8.50182 -8.40986e-19
34 1 2.7664 7.47827 -2.69156e-18
35 1 4.25804 7.45115 -3.03659e-18
18 1 4.97725 6.2062 -2.85737e-18
27 1 6.43803 6.20447 -3.32859e-18
28 1 7.15513 4.96359 -3.49708e-18
29 1 8.62383 4.91234 -3.78482e-18
30 1 9.32954 6.16026 -3.10676e-18
36 1 5.12616 8.55011 -3.55323e-18
37 1 6.307 8.62653 -3.20591e-18
38 1 7.11079 7.47143 -3.62279e-18
39 1 8.64779 7.55825 -3.47495e-18
40 1 9.35469 8.70612 -3.65345e-18
ITEM: TIMESTEP
5000
ITEM: NUMBER OF ATOMS
40
ITEM: BOX BOUNDS pp pp pp
-2.0000000000000000e+00 1.1000000000000000e+01
-2.0000000000000000e+00 1.1000000000000000e+01
-2.0000000000000000e+00 2.0000000000000000e+00
ITEM: ATOMS id type x y z
1 1 -0.115592 -0.0906466 4.79798e-19
2 1 0.574429 1.06216 -7.26633e-19
3 1 2.10949 1.14571 -1.72751e-18
4 1 2.96235 -0.00879513 -1.95969e-18
5 1 4.13494 0.00923267 -2.48751e-18
7 1 -0.113992 2.46889 -2.11828e-18
8 1 0.577478 3.71872 -2.44793e-18
9 1 2.06412 3.66927 -2.84762e-18
10 1 2.79117 2.40873 -2.3191e-18
11 1 4.25324 2.40312 -2.17509e-18
6 1 4.95934 1.15773 -2.13313e-18
12 1 4.9609 3.65369 -2.0578e-18
19 1 6.43408 1.17173 -2.17556e-18
20 1 7.31958 0.122718 -3.57573e-18
21 1 8.62759 -0.280949 -3.78178e-18
22 1 8.94206 0.859866 -3.47815e-18
23 1 6.40201 3.69317 -1.76595e-18
24 1 7.07756 2.40813 -2.00259e-18
25 1 8.56296 2.29738 -2.66404e-18
26 1 9.3223 3.52611 -2.11416e-18
13 1 -0.108165 5.09482 -2.9107e-18
14 1 0.670432 6.32276 -2.52551e-18
15 1 2.11449 6.16365 -2.2501e-18
16 1 2.80403 4.89843 -2.03613e-18
17 1 4.25386 4.92309 -1.35393e-18
31 1 0.304567 7.8371 -2.12529e-18
32 1 0.697498 8.98186 -2.93148e-18
33 1 1.89983 8.51383 -2.88891e-18
34 1 2.78888 7.4668 -2.08367e-18
35 1 4.25028 7.4156 -1.82588e-18
18 1 4.9673 6.16464 -2.01053e-18
27 1 6.44183 6.19552 -1.7425e-18
28 1 7.11839 4.92987 -1.45247e-18
29 1 8.62173 4.88995 -1.72298e-18
30 1 9.3395 6.15453 -1.46985e-18
36 1 5.14894 8.53 -1.55844e-18
37 1 6.34222 8.63407 -1.3478e-18
38 1 7.0915 7.44987 -1.59608e-18
39 1 8.6428 7.50589 -1.47103e-18
40 1 9.36407 8.69759 -9.78103e-19
ITEM: TIMESTEP
6000
ITEM: NUMBER OF ATOMS
40
ITEM: BOX BOUNDS pp pp pp
-2.0000000000000000e+00 1.1000000000000000e+01
-2.0000000000000000e+00 1.1000000000000000e+01
-2.0000000000000000e+00 2.0000000000000000e+00
ITEM: ATOMS id type x y z
1 1 -0.124877 -0.0924449 -1.69219e-18
2 1 0.571593 1.07092 -1.11988e-18
3 1 2.10613 1.16373 -1.65419e-18
4 1 2.90599 -0.0263117 -1.70044e-18
5 1 4.09586 0.0381922 -1.83788e-18
7 1 -0.126379 2.46128 -1.66413e-18
8 1 0.588326 3.70091 -1.75042e-18
9 1 2.07012 3.67027 -1.47952e-18
10 1 2.79613 2.42075 -1.54576e-18
11 1 4.24753 2.44478 -1.28183e-18
6 1 4.96116 1.16981 -1.69569e-18
12 1 4.97874 3.67268 -1.53498e-18
19 1 6.4345 1.14936 -1.58509e-18
20 1 7.32357 0.108457 -1.00295e-18
21 1 8.53738 -0.386133 -1.03319e-18
22 1 8.92783 0.75757 -7.26564e-19
23 1 6.41416 3.72477 -1.11422e-18
24 1 7.10183 2.42815 -1.16345e-18
25 1 8.53953 2.27795 -4.41983e-19
26 1 9.30623 3.50347 4.12243e-19
13 1 -0.0852128 5.08355 -1.98069e-18
14 1 0.692284 6.30145 -2.30363e-19
15 1 2.14177 6.17991 -1.59211e-19
16 1 2.81032 4.92332 -5.34779e-19
17 1 4.2733 4.9322 -8.23947e-19
31 1 0.292538 7.82421 -1.23142e-18
32 1 0.652507 8.94287 8.25291e-20
33 1 1.91614 8.53055 1.89087e-19
34 1 2.77682 7.4854 1.17335e-19
35 1 4.28974 7.45778 -4.55101e-20
18 1 4.98983 6.1878 -4.43394e-19
27 1 6.44226 6.20133 -1.01136e-19
28 1 7.16306 4.94002 -1.61816e-20
29 1 8.63351 4.89341 6.64004e-19
30 1 9.35632 6.13201 1.29893e-18
36 1 5.12273 8.6151 5.74706e-19
37 1 6.31625 8.58947 9.31406e-19
38 1 7.13881 7.45044 2.31846e-19
39 1 8.65617 7.53017 6.11377e-19
40 1 9.36549 8.70666 -2.56983e-20
ITEM: TIMESTEP
7000
ITEM: NUMBER OF ATOMS
40
ITEM: BOX BOUNDS pp pp pp
-2.0000000000000000e+00 1.1000000000000000e+01
-2.0000000000000000e+00 1.1000000000000000e+01
-2.0000000000000000e+00 2.0000000000000000e+00
ITEM: ATOMS id type x y z
1 1 -0.112111 -0.0918056 -1.2557e-18
2 1 0.580454 1.09234 2.3391e-19
3 1 2.10317 1.16737 8.37697e-19
4 1 2.90415 -0.0160446 6.18452e-19
5 1 4.10005 0.00303759 2.42026e-18
7 1 -0.126132 2.49001 9.81108e-19
8 1 0.584618 3.7309 2.26091e-18
9 1 2.08483 3.68548 1.91618e-18
10 1 2.7775 2.41769 1.87838e-18
11 1 4.24833 2.41776 3.00408e-18
6 1 4.94743 1.16122 3.00618e-18
12 1 4.95821 3.66737 2.44506e-18
19 1 6.42178 1.13013 1.88042e-18
20 1 7.31244 0.0713375 8.58407e-19
21 1 8.53387 -0.3758 -4.28092e-19
22 1 8.92099 0.768823 -3.45888e-19
23 1 6.41291 3.6999 2.16867e-18
24 1 7.09128 2.43315 2.03794e-18
25 1 8.52796 2.25801 6.76571e-19
26 1 9.28333 3.49908 7.58097e-19
13 1 -0.0871164 5.12092 1.94914e-18
14 1 0.69651 6.3269 2.37518e-18
15 1 2.12496 6.19137 2.07283e-18
16 1 2.7995 4.90615 2.14262e-18
17 1 4.26241 4.92728 1.81493e-18
31 1 0.329443 7.86287 8.9965e-19
32 1 0.699001 9.01623 1.25123e-19
33 1 1.91241 8.53338 -1.96376e-19
34 1 2.8136 7.48423 4.92952e-19
35 1 4.27787 7.44063 7.53825e-19
18 1 4.97988 6.1655 1.34087e-18
27 1 6.43537 6.18226 7.77604e-19
28 1 7.13039 4.93447 1.62147e-18
29 1 8.6238 4.88156 8.63498e-19
30 1 9.34784 6.12833 1.7025e-18
36 1 5.16633 8.55329 9.59114e-19
37 1 6.34811 8.63039 2.71024e-19
38 1 7.12502 7.44437 4.79872e-19
39 1 8.67539 7.52838 6.74956e-19
40 1 9.38424 8.69739 7.63468e-19
ITEM: TIMESTEP
8000
ITEM: NUMBER OF ATOMS
40
ITEM: BOX BOUNDS pp pp pp
-2.0000000000000000e+00 1.1000000000000000e+01
-2.0000000000000000e+00 1.1000000000000000e+01
-2.0000000000000000e+00 2.0000000000000000e+00
ITEM: ATOMS id type x y z
1 1 -0.159476 -0.0393639 1.65814e-18
2 1 0.576436 1.10132 8.30927e-19
3 1 2.10451 1.17553 1.61046e-18
4 1 2.88293 0.0176735 1.42653e-18
5 1 4.09409 0.0280741 1.09054e-18
7 1 -0.132187 2.50901 7.40806e-19
8 1 0.59929 3.736 7.96482e-19
9 1 2.08974 3.68902 9.59125e-19
10 1 2.77398 2.43831 1.30368e-18
11 1 4.23793 2.44316 1.29961e-18
6 1 4.90158 1.17024 8.51894e-19
12 1 4.98087 3.68162 1.51597e-18
19 1 6.39644 1.11048 1.19674e-18
20 1 7.28348 0.0613782 1.05971e-18
21 1 8.51178 -0.388788 1.7202e-18
22 1 8.91715 0.740424 1.37089e-18
23 1 6.4255 3.69435 1.92619e-18
24 1 7.1085 2.41096 1.64816e-18
25 1 8.54048 2.251 1.65004e-18
26 1 9.28976 3.48043 2.24185e-18
13 1 -0.0616467 5.13472 1.12992e-18
14 1 0.686858 6.36422 2.01427e-18
15 1 2.14772 6.18049 2.57538e-18
16 1 2.82175 4.90579 2.06261e-18
17 1 4.27821 4.93597 2.18785e-18
31 1 0.322208 7.81465 2.26721e-18
32 1 0.727925 8.95842 2.10404e-18
33 1 1.9215 8.53689 2.06913e-18
34 1 2.81133 7.47515 2.81664e-18
35 1 4.28993 7.44919 2.32544e-18
18 1 4.99371 6.19344 2.72118e-18
27 1 6.45452 6.16799 2.0582e-18
28 1 7.15193 4.9269 1.87497e-18
29 1 8.63372 4.87132 2.10517e-18
30 1 9.34248 6.12329 2.23264e-18
36 1 5.16264 8.5826 1.97278e-18
37 1 6.33979 8.61783 1.84315e-18
38 1 7.12694 7.43436 1.56446e-18
39 1 8.65162 7.51132 1.99747e-18
40 1 9.37408 8.67048 2.59225e-18
ITEM: TIMESTEP
9000
ITEM: NUMBER OF ATOMS
40
ITEM: BOX BOUNDS pp pp pp
-2.0000000000000000e+00 1.1000000000000000e+01
-2.0000000000000000e+00 1.1000000000000000e+01
-2.0000000000000000e+00 2.0000000000000000e+00
ITEM: ATOMS id type x y z
1 1 -0.177034 -0.0317629 5.13471e-18
2 1 0.554181 1.11779 3.02108e-18
3 1 2.09428 1.18076 2.02464e-18
4 1 2.8844 0.0206035 2.14366e-18
5 1 4.08566 0.0131256 1.67619e-18
7 1 -0.121755 2.4986 1.13852e-18
8 1 0.599853 3.76224 9.13083e-19
9 1 2.06571 3.69176 1.72046e-18
10 1 2.76499 2.43055 2.0357e-18
11 1 4.2289 2.42459 1.76984e-18
6 1 4.93267 1.15799 1.71858e-18
12 1 4.93913 3.66843 1.84892e-18
19 1 6.40509 1.12261 1.30964e-18
20 1 7.27714 0.0650811 1.21939e-18
21 1 8.49724 -0.415892 8.11904e-19
22 1 8.89221 0.71997 2.26007e-18
23 1 6.39333 3.6952 1.48163e-18
24 1 7.08729 2.4255 1.21319e-18
25 1 8.50609 2.25474 1.75639e-18
26 1 9.29327 3.4654 1.98319e-18
13 1 -0.0700693 5.14852 4.42173e-19
14 1 0.708731 6.37614 8.59194e-19
15 1 2.13412 6.18771 1.64307e-18
16 1 2.82134 4.92378 1.70828e-18
17 1 4.27356 4.9438 1.72873e-18
31 1 0.292817 7.8493 5.63628e-19
32 1 0.692736 8.96384 1.54972e-18
33 1 1.95228 8.5233 9.40115e-19
34 1 2.84629 7.49944 1.51716e-18
35 1 4.35471 7.44693 8.92569e-19
18 1 4.99999 6.20414 9.23477e-19
27 1 6.47304 6.16828 1.04283e-18
28 1 7.16256 4.90698 1.30283e-18
29 1 8.63056 4.85594 1.47858e-18
30 1 9.35791 6.10453 6.88827e-19
36 1 5.15792 8.61399 5.18636e-19
37 1 6.36288 8.57782 5.17166e-19
38 1 7.15376 7.4454 5.99929e-19
39 1 8.68803 7.49746 1.00289e-18
40 1 9.40419 8.66125 9.45075e-19
ITEM: TIMESTEP
10000
ITEM: NUMBER OF ATOMS
40
ITEM: BOX BOUNDS pp pp pp
-2.0000000000000000e+00 1.1000000000000000e+01
-2.0000000000000000e+00 1.1000000000000000e+01
-2.0000000000000000e+00 2.0000000000000000e+00
ITEM: ATOMS id type x y z
1 1 -0.215364 -0.00933619 -5.32688e-19
2 1 0.521749 1.13598 8.2251e-20
3 1 2.04772 1.19404 3.59456e-19
4 1 2.86349 0.0300301 -5.45599e-20
5 1 4.04153 0.0381963 9.82966e-19
7 1 -0.165496 2.55624 2.39059e-18
8 1 0.575076 3.765 3.91022e-18
9 1 2.07733 3.72744 2.70561e-18
10 1 2.78846 2.46685 6.02587e-19
11 1 4.24955 2.44861 8.91007e-19
6 1 4.91163 1.16136 1.63092e-18
12 1 4.9834 3.68108 1.32673e-18
19 1 6.38966 1.11368 1.35716e-18
20 1 7.27411 0.055743 1.79402e-18
21 1 8.48711 -0.444537 1.02364e-18
22 1 8.87848 0.702582 3.12067e-19
23 1 6.44003 3.69953 7.15155e-19
24 1 7.09612 2.39367 2.86507e-19
25 1 8.52311 2.23496 1.51024e-19
26 1 9.30976 3.444 1.42385e-19
13 1 -0.0712952 5.13962 4.9696e-18
14 1 0.722146 6.37982 3.22502e-18
15 1 2.13167 6.20613 1.84982e-18
16 1 2.83446 4.93452 1.96234e-18
17 1 4.28018 4.95557 1.60092e-18
31 1 0.24113 7.79573 3.86877e-18
32 1 0.687233 8.95375 2.464e-18
33 1 2.00024 8.56926 3.0815e-18
34 1 2.86465 7.50649 2.24777e-18
35 1 4.35433 7.47 1.65596e-18
18 1 5.02371 6.16909 1.45277e-18
27 1 6.4713 6.1632 1.54863e-18
28 1 7.18132 4.90204 1.01007e-18
29 1 8.6509 4.84135 5.63998e-19
30 1 9.37156 6.07275 2.03537e-18
36 1 5.16582 8.62187 1.17447e-18
37 1 6.33267 8.54334 1.59928e-18
38 1 7.16839 7.42637 1.66947e-18
39 1 8.69954 7.48428 2.01133e-18
40 1 9.41256 8.63556 1.77252e-18
ITEM: TIMESTEP
11000
ITEM: NUMBER OF ATOMS
40
ITEM: BOX BOUNDS pp pp pp
-2.0000000000000000e+00 1.1000000000000000e+01
-2.0000000000000000e+00 1.1000000000000000e+01
-2.0000000000000000e+00 2.0000000000000000e+00
ITEM: ATOMS id type x y z
1 1 -0.194909 -0.0209306 4.12601e-18
2 1 0.531862 1.14314 3.79463e-18
3 1 2.07149 1.20888 4.13698e-18
4 1 2.84097 0.0360617 3.02975e-18
5 1 4.03913 0.0357212 2.67179e-18
7 1 -0.144231 2.53665 3.9155e-18
8 1 0.580982 3.77919 3.95363e-18
9 1 2.07234 3.69869 3.40598e-18
10 1 2.75306 2.45123 3.59785e-18
11 1 4.21541 2.4305 2.82535e-18
6 1 4.89733 1.15891 3.01342e-18
12 1 4.95157 3.66982 3.05487e-18
19 1 6.37718 1.10579 3.33267e-18
20 1 7.25552 0.056267 3.29412e-18
21 1 8.46549 -0.44881 3.81782e-18
22 1 8.84596 0.691269 3.3744e-18
23 1 6.42403 3.68003 3.32534e-18
24 1 7.0735 2.41266 3.27042e-18
25 1 8.49421 2.23324 2.73744e-18
26 1 9.29479 3.43614 2.60766e-18
13 1 -0.0432841 5.17386 4.15874e-18
14 1 0.75664 6.3917 3.40309e-18
15 1 2.16232 6.20607 2.94137e-18
16 1 2.7973 4.93495 2.8539e-18
17 1 4.28859 4.93257 2.81199e-18
31 1 0.37345 7.91654 3.34689e-18
32 1 0.77045 9.05351 1.87442e-18
33 1 2.01105 8.56877 1.70413e-18
34 1 2.85218 7.5081 1.74614e-18
35 1 4.3301 7.44817 2.17677e-18
18 1 5.00446 6.15531 2.93363e-18
27 1 6.4694 6.1574 3.28441e-18
28 1 7.17077 4.90693 2.9192e-18
29 1 8.63241 4.82527 2.50589e-18
30 1 9.35865 6.07195 2.82751e-18
36 1 5.17614 8.57513 2.31625e-18
37 1 6.36035 8.56609 2.50356e-18
38 1 7.16522 7.41305 2.87971e-18
39 1 8.68458 7.45898 3.13354e-18
40 1 9.43352 8.60704 3.45128e-18
ITEM: TIMESTEP
12000
ITEM: NUMBER OF ATOMS
40
ITEM: BOX BOUNDS pp pp pp
-2.0000000000000000e+00 1.1000000000000000e+01
-2.0000000000000000e+00 1.1000000000000000e+01
-2.0000000000000000e+00 2.0000000000000000e+00
ITEM: ATOMS id type x y z
1 1 -0.223301 0.0294218 2.14813e-18
2 1 0.501537 1.20634 2.8637e-18
3 1 2.04395 1.21679 4.44481e-18
4 1 2.81527 0.0434035 4.94041e-18
5 1 4.01623 0.0451674 5.17752e-18
7 1 -0.145408 2.5788 2.63361e-18
8 1 0.577895 3.84132 4.05546e-18
9 1 2.07096 3.7281 4.65601e-18
10 1 2.75125 2.45764 4.61492e-18
11 1 4.20457 2.44377 4.61132e-18
6 1 4.89585 1.1644 4.55769e-18
12 1 4.95813 3.67206 4.21923e-18
19 1 6.35884 1.07831 4.14145e-18
20 1 7.22613 0.0199916 4.4735e-18
21 1 8.42634 -0.470067 3.56871e-18
22 1 8.83509 0.671734 3.23858e-18
23 1 6.39968 3.66991 4.13545e-18
24 1 7.05041 2.3682 3.53959e-18
25 1 8.48257 2.20331 3.63384e-18
26 1 9.295 3.40201 4.06969e-18
13 1 -0.0445935 5.19515 4.29891e-18
14 1 0.71497 6.47442 4.19305e-18
15 1 2.16301 6.25581 3.57415e-18
16 1 2.82401 4.93351 3.36411e-18
17 1 4.28526 4.95264 3.77793e-18
31 1 0.326754 7.85273 3.89194e-18
32 1 0.838746 8.88788 3.90172e-18
33 1 1.99763 8.65132 4.24747e-18
34 1 2.90779 7.47386 3.95156e-18
35 1 4.33182 7.45095 3.99192e-18
18 1 5.04633 6.1572 3.82301e-18
27 1 6.47928 6.16854 4.2669e-18
28 1 7.16555 4.89179 4.51272e-18
29 1 8.6448 4.79665 4.35058e-18
30 1 9.38313 6.03685 4.73116e-18
36 1 5.22528 8.59941 4.21587e-18
37 1 6.40586 8.58319 4.50966e-18
38 1 7.19384 7.40419 4.46761e-18
39 1 8.7199 7.43468 4.89753e-18
40 1 9.44963 8.59449 5.72439e-18
ITEM: TIMESTEP
13000
ITEM: NUMBER OF ATOMS
40
ITEM: BOX BOUNDS pp pp pp
-2.0000000000000000e+00 1.1000000000000000e+01
-2.0000000000000000e+00 1.1000000000000000e+01
-2.0000000000000000e+00 2.0000000000000000e+00
ITEM: ATOMS id type x y z
1 1 -0.249972 0.0531198 8.56456e-18
2 1 0.508941 1.18678 6.21833e-18
3 1 2.02525 1.2152 6.24195e-18
4 1 2.77806 0.0345996 6.51245e-18
5 1 3.97252 0.0414118 6.47472e-18
7 1 -0.166724 2.60041 5.04377e-18
8 1 0.576813 3.82211 5.17992e-18
9 1 2.07781 3.74542 5.67384e-18
10 1 2.73921 2.47179 6.07261e-18
11 1 4.20207 2.42079 6.7969e-18
6 1 4.87249 1.14803 6.58425e-18
12 1 4.93495 3.65111 7.17674e-18
19 1 6.34305 1.07846 7.84559e-18
20 1 7.19667 0.0288949 7.88586e-18
21 1 8.40028 -0.454779 8.00662e-18
22 1 8.85013 0.674405 7.46987e-18
23 1 6.39112 3.67631 7.36329e-18
24 1 7.0415 2.36997 7.91554e-18
25 1 8.477 2.18209 8.21597e-18
26 1 9.29497 3.38989 7.73536e-18
13 1 -0.0599507 5.23633 6.16468e-18
14 1 0.755875 6.42928 5.7472e-18
15 1 2.18486 6.26368 5.87738e-18
16 1 2.81045 4.96288 6.02557e-18
17 1 4.27136 4.9277 6.78713e-18
31 1 0.414291 7.93255 7.18949e-18
32 1 0.810951 9.07479 6.25274e-18
33 1 2.04544 8.59393 6.86415e-18
34 1 2.91041 7.53166 6.24536e-18
35 1 4.3753 7.42478 6.97086e-18
18 1 5.03121 6.1532 6.83943e-18
27 1 6.49658 6.13557 6.93835e-18
28 1 7.16104 4.87496 7.15198e-18
29 1 8.65077 4.78512 7.4099e-18
30 1 9.40492 6.01272 7.02586e-18
36 1 5.23169 8.58877 6.50265e-18
37 1 6.42738 8.54828 6.30192e-18
38 1 7.19359 7.37101 6.6145e-18
39 1 8.74082 7.42021 6.4781e-18
40 1 9.47687 8.56243 6.02831e-18
ITEM: TIMESTEP
14000
ITEM: NUMBER OF ATOMS
40
ITEM: BOX BOUNDS pp pp pp
-2.0000000000000000e+00 1.1000000000000000e+01
-2.0000000000000000e+00 1.1000000000000000e+01
-2.0000000000000000e+00 2.0000000000000000e+00
ITEM: ATOMS id type x y z
1 1 -0.265511 0.0554383 5.83904e-18
2 1 0.464518 1.20049 7.2993e-18
3 1 1.99624 1.23124 5.6738e-18
4 1 2.76083 0.0369462 4.24287e-18
5 1 3.94917 0.0908474 3.13267e-18
7 1 -0.174704 2.63016 7.28784e-18
8 1 0.574182 3.84376 7.00649e-18
9 1 2.06137 3.73006 6.74948e-18
10 1 2.74264 2.44972 5.7169e-18
11 1 4.20029 2.47065 4.49478e-18
6 1 4.8495 1.176 3.89145e-18
12 1 4.97206 3.68592 4.59413e-18
19 1 6.32119 1.06831 4.13909e-18
20 1 7.1587 -0.00164069 3.59811e-18
21 1 8.36749 -0.500544 3.12249e-18
22 1 8.7994 0.625203 3.02257e-18
23 1 6.41907 3.65437 4.78605e-18
24 1 7.03812 2.34667 4.86074e-18
25 1 8.4697 2.15235 4.28361e-18
26 1 9.29043 3.34784 4.64983e-18
13 1 -0.028994 5.258 8.62117e-18
14 1 0.796481 6.44626 7.93968e-18
15 1 2.20399 6.21117 7.10378e-18
16 1 2.85987 4.93772 6.43181e-18
17 1 4.30802 4.97042 5.33901e-18
31 1 0.390828 8.01386 8.74829e-18
32 1 0.857767 9.10582 8.29983e-18
33 1 2.06134 8.59623 7.2841e-18
34 1 2.88729 7.54439 6.48173e-18
35 1 4.36951 7.47781 6.18392e-18
18 1 5.05114 6.1976 6.4354e-18
27 1 6.50731 6.12933 6.25371e-18
28 1 7.17657 4.86081 5.67419e-18
29 1 8.65579 4.74689 4.95708e-18
30 1 9.40588 5.98488 5.70619e-18
36 1 5.23307 8.60615 6.45869e-18
37 1 6.38099 8.49656 6.58403e-18
38 1 7.22536 7.35868 6.50731e-18
39 1 8.77192 7.38802 6.57811e-18
40 1 9.4912 8.54146 6.9322e-18
ITEM: TIMESTEP
15000
ITEM: NUMBER OF ATOMS
40
ITEM: BOX BOUNDS pp pp pp
-2.0000000000000000e+00 1.1000000000000000e+01
-2.0000000000000000e+00 1.1000000000000000e+01
-2.0000000000000000e+00 2.0000000000000000e+00
ITEM: ATOMS id type x y z
1 1 -0.306181 0.115469 7.91703e-18
2 1 0.477763 1.23081 7.17077e-18
3 1 1.97993 1.26184 7.94809e-18
4 1 2.76948 0.0831877 7.36419e-18
5 1 3.95432 0.0237775 8.0047e-18
7 1 -0.175219 2.66694 5.91697e-18
8 1 0.570741 3.87695 6.64198e-18
9 1 2.06015 3.75891 7.1426e-18
10 1 2.72082 2.49992 7.56812e-18
11 1 4.17623 2.44567 7.73083e-18
6 1 4.82221 1.15352 8.25565e-18
12 1 4.9369 3.6605 8.17847e-18
19 1 6.30558 1.0631 8.17098e-18
20 1 7.15627 -0.016001 7.73394e-18
21 1 8.3535 -0.52713 6.96066e-18
22 1 8.76858 0.609569 7.80995e-18
23 1 6.40336 3.64225 8.02625e-18
24 1 7.00914 2.33003 8.05899e-18
25 1 8.44633 2.14337 7.85151e-18
26 1 9.27911 3.33077 8.33401e-18
13 1 -0.0506016 5.30428 6.36928e-18
14 1 0.772391 6.47858 7.05343e-18
15 1 2.21232 6.25795 8.06912e-18
16 1 2.84126 4.94933 8.38375e-18
17 1 4.30781 4.95092 8.97147e-18
31 1 0.408827 7.9351 6.86622e-18
32 1 0.859869 9.10437 8.03593e-18
33 1 2.11117 8.65579 8.33889e-18
34 1 2.92098 7.52646 8.48217e-18
35 1 4.39053 7.46108 8.89875e-18
18 1 5.04141 6.17462 9.14359e-18
27 1 6.51681 6.12306 8.33241e-18
28 1 7.16839 4.83959 8.17e-18
29 1 8.63944 4.73128 8.20848e-18
30 1 9.40802 5.95999 8.03509e-18
36 1 5.29625 8.56915 8.75271e-18
37 1 6.49407 8.54063 8.44322e-18
38 1 7.25361 7.35638 8.34841e-18
39 1 8.78207 7.37156 7.99428e-18
40 1 9.51634 8.5223 7.72142e-18
ITEM: TIMESTEP
16000
ITEM: NUMBER OF ATOMS
40
ITEM: BOX BOUNDS pp pp pp
-2.0000000000000000e+00 1.1000000000000000e+01
-2.0000000000000000e+00 1.1000000000000000e+01
-2.0000000000000000e+00 2.0000000000000000e+00
ITEM: ATOMS id type x y z
1 1 -0.319533 0.129056 1.01406e-17
2 1 0.435776 1.26424 8.52854e-18
3 1 1.9432 1.28434 7.36221e-18
4 1 2.70398 0.0752888 6.69694e-18
5 1 3.89677 0.0308542 7.44116e-18
7 1 -0.184347 2.68147 8.02971e-18
8 1 0.59092 3.90009 8.62793e-18
9 1 2.05625 3.78025 7.90925e-18
10 1 2.70575 2.49245 7.12827e-18
11 1 4.1654 2.43538 7.54994e-18
6 1 4.78473 1.13563 7.73076e-18
12 1 4.93655 3.64506 7.57561e-18
19 1 6.26582 1.14083 7.4903e-18
20 1 7.11745 -0.0532049 7.14123e-18
21 1 8.37289 -0.566597 7.89068e-18
22 1 8.7303 0.607437 7.41475e-18
23 1 6.38113 3.65828 8.15686e-18
24 1 7.01884 2.35818 7.62489e-18
25 1 8.45397 2.09467 7.75981e-18
26 1 9.26198 3.28737 7.74331e-18
13 1 -0.0349839 5.30789 9.2305e-18
14 1 0.797388 6.49195 9.01894e-18
15 1 2.22964 6.28139 8.67361e-18
16 1 2.8401 4.96642 7.88376e-18
17 1 4.29032 4.93799 7.90671e-18
31 1 0.475058 8.03882 9.01137e-18
32 1 0.919128 9.15995 7.97499e-18
33 1 2.10666 8.62969 8.65159e-18
34 1 2.95128 7.54891 8.7349e-18
35 1 4.41943 7.44311 8.42931e-18
18 1 5.06709 6.14538 8.24938e-18
27 1 6.53656 6.11868 8.22527e-18
28 1 7.19278 4.84718 8.14847e-18
29 1 8.65453 4.72009 7.75927e-18
30 1 9.43332 5.93054 7.96849e-18
36 1 5.30805 8.55173 8.52226e-18
37 1 6.51403 8.50315 8.86226e-18
38 1 7.24477 7.31935 8.86083e-18
39 1 8.79838 7.3399 8.63149e-18
40 1 9.53865 8.50264 8.06093e-18
ITEM: TIMESTEP
17000
ITEM: NUMBER OF ATOMS
40
ITEM: BOX BOUNDS pp pp pp
-2.0000000000000000e+00 1.1000000000000000e+01
-2.0000000000000000e+00 1.1000000000000000e+01
-2.0000000000000000e+00 2.0000000000000000e+00
ITEM: ATOMS id type x y z
1 1 -0.351463 0.186503 6.58983e-18
2 1 0.418882 1.30397 8.48262e-18
3 1 1.96102 1.29721 9.26055e-18
4 1 2.66869 0.0819499 9.25047e-18
5 1 3.86869 0.0773563 8.54687e-18
7 1 -0.195237 2.72069 1.18829e-17
8 1 0.58491 3.93778 1.10575e-17
9 1 2.06688 3.79755 9.20357e-18
10 1 2.698 2.5226 1.01906e-17
11 1 4.14516 2.45999 9.55213e-18
6 1 4.7846 1.15245 9.18991e-18
12 1 4.94801 3.65437 9.43988e-18
19 1 6.25881 1.04761 9.97629e-18
20 1 7.09556 -0.0390317 1.00445e-17
21 1 8.28046 -0.607509 1.05474e-17
22 1 8.71579 0.522587 1.14156e-17
23 1 6.3936 3.61358 8.52226e-18
24 1 7.01123 2.30253 9.93321e-18
25 1 8.4361 2.07715 9.76093e-18
26 1 9.26309 3.25445 8.17344e-18
13 1 -0.0333913 5.34261 1.14193e-17
14 1 0.814523 6.52198 9.61112e-18
15 1 2.23068 6.30313 7.68342e-18
16 1 2.85826 4.98351 7.95986e-18
17 1 4.30124 4.95096 7.80873e-18
31 1 0.502936 8.05526 9.96735e-18
32 1 0.928037 9.18763 8.83426e-18
33 1 2.12011 8.65098 9.55611e-18
34 1 2.96352 7.56053 7.81379e-18
35 1 4.44414 7.45598 7.54481e-18
18 1 5.08716 6.15973 7.20584e-18
27 1 6.53355 6.09029 7.43141e-18
28 1 7.18285 4.80203 8.15876e-18
29 1 8.65796 4.67791 7.73565e-18
30 1 9.42472 5.8982 6.22896e-18
36 1 5.35466 8.53737 6.90794e-18
37 1 6.55003 8.51962 6.9396e-18
38 1 7.26843 7.32548 6.63169e-18
39 1 8.80249 7.31514 6.50812e-18
40 1 9.55531 8.46373 6.2445e-18
ITEM: TIMESTEP
18000
ITEM: NUMBER OF ATOMS
40
ITEM: BOX BOUNDS pp pp pp
-2.0000000000000000e+00 1.1000000000000000e+01
-2.0000000000000000e+00 1.1000000000000000e+01
-2.0000000000000000e+00 2.0000000000000000e+00
ITEM: ATOMS id type x y z
1 1 -0.429493 0.259233 2.97991e-18
2 1 0.354915 1.39665 3.03058e-18
3 1 1.91596 1.3455 3.25255e-18
4 1 2.60918 0.121034 2.61639e-18
5 1 3.80171 0.0957538 2.29222e-18
7 1 -0.230938 2.78313 2.58565e-18
8 1 0.562039 4.03079 3.13349e-18
9 1 2.06248 3.85452 2.96147e-18
10 1 2.66568 2.5602 3.81581e-18
11 1 4.12438 2.47125 3.51204e-18
6 1 4.72883 1.15825 3.33049e-18
12 1 4.9304 3.65948 3.38741e-18
19 1 6.20788 1.01679 3.23749e-18
20 1 7.02754 -0.0826209 3.1809e-18
21 1 8.19778 -0.661318 3.77767e-18