# System definition
read_data graphene_single_layer_x-45_y-45_795_C.data
Reading data file ...
  orthogonal box = (-51 -51 -51) to (96 96 51)
  1 by 1 by 1 MPI processor grid
  reading atoms ...
  795 atoms
  read_data CPU = 0.032 seconds
pair_style lj/cut 6
pair_coeff      1 1 0.066047 3.4

# Virtual force wall to keep the cylinder shape
#region myCylinder cylinder z 0. 0. 20.3 -22.079997 505.920003 units box
#fix wall all wall/region myCylinder lj93 1.0 1.0 2.5

# Minimization
timestep 0.25
thermo 100
thermo_style custom step temp press vol lx density pe etotal
dump 2 all custom 1000 graphene_single_layer_LJ_795C_after_temp_800K.lammpstrj id type x y z
min_style cg
minimize 1.0e-6 1.0e-6 100 1000
WARNING: Using 'neigh_modify every 1 delay 0 check yes' setting during minimization (../min.cpp:187)
  generated 0 of 0 mixed pair_coeff terms from geometric mixing rule
Neighbor list info ...
  update every 1 steps, delay 0 steps, check yes
  max neighbors/atom: 10000, page size: 100000
  master list distance cutoff = 6.4
  ghost atom cutoff = 6.4
  binsize = 3.2, bins = 46 46 32
  1 neighbor lists, perpetual/occasional/extra = 1 0 0
  (1) pair lj/cut, perpetual
      attributes: half, newton on
      pair build: half/bin/atomonly/newton
      stencil: half/bin/3d
      bin: standard
Per MPI rank memory allocation (min/avg/max) = 5.96 | 5.96 | 5.96 Mbytes
Step Temp Press Volume Lx Density PotEng TotEng 
       0            0    1335313.5      2204118          147  0.007193656     10699602     10699602 
     100            0     61841.43      2204118          147  0.007193656    488621.59    488621.59 
Loop time of 0.160237 on 1 procs for 100 steps with 795 atoms

100.0% CPU use with 1 MPI tasks x no OpenMP threads

Minimization stats:
  Stopping criterion = max iterations
  Energy initial, next-to-last, final = 
      10699602.3573369   495470.853828546   488621.590421788
  Force two-norm initial, final = 694694.42 29375.63
  Force max component initial, final = 79169.705 9280.0147
  Final line search alpha, max atom move = 3.8811533e-05 0.36017159
  Iterations, force evaluations = 100 117

MPI task timing breakdown:
Section |  min time  |  avg time  |  max time  |%varavg| %total
---------------------------------------------------------------
Pair    | 0.10109    | 0.10109    | 0.10109    |   0.0 | 63.09
Neigh   | 0.049463   | 0.049463   | 0.049463   |   0.0 | 30.87
Comm    | 0.0009714  | 0.0009714  | 0.0009714  |   0.0 |  0.61
Output  | 0.000151   | 0.000151   | 0.000151   |   0.0 |  0.09
Modify  | 0          | 0          | 0          |   0.0 |  0.00
Other   |            | 0.008561   |            |       |  5.34

Nlocal:            795 ave         795 max         795 min
Histogram: 1 0 0 0 0 0 0 0 0 0
Nghost:              0 ave           0 max           0 min
Histogram: 1 0 0 0 0 0 0 0 0 0
Neighs:          13073 ave       13073 max       13073 min
Histogram: 1 0 0 0 0 0 0 0 0 0

Total # of neighbors = 13073
Ave neighs/atom = 16.444025
Neighbor list builds = 35
Dangerous builds = 0
#timestep 0.25
fix 1 all nvt temp 800.0 800.0 $(100.0*dt)
fix 1 all nvt temp 800.0 800.0 25
run 400000
  generated 0 of 0 mixed pair_coeff terms from geometric mixing rule
Per MPI rank memory allocation (min/avg/max) = 4.835 | 4.835 | 4.835 Mbytes
Step Temp Press Volume Lx Density PotEng TotEng 
     100            0     61841.43      2204118          147  0.007193656    488621.59    488621.59 
     200    26415.795    21453.048      2204118          147  0.007193656    157078.74    219598.67 
     300    8458.5474    10006.179      2204118          147  0.007193656    73653.311    93672.689 
     400    4322.6394    6297.6474      2204118          147  0.007193656    46155.817     56386.48 
     500    2764.3252    4490.5542      2204118          147  0.007193656    32656.378    39198.881 
     600    1989.4758    3421.5585      2204118          147  0.007193656    24653.841    29362.459 
     700    1547.8584    2717.8132      2204118          147  0.007193656    19385.408    23048.822 
     800     1273.807      2219.11      2204118          147  0.007193656    15655.363    18670.163 
     900    1094.5885    1847.7731      2204118          147  0.007193656    12881.911    15472.542 
    1000    975.65505    1560.2395      2204118          147  0.007193656    10737.134    13046.279 
    1100    896.31146    1331.3153      2204118          147  0.007193656    9032.0861    11153.443 
    1200     845.6661     1144.902      2204118          147  0.007193656     7645.317    9646.8084 
    1300    816.13992    990.13663      2204118          147  0.007193656    6495.3468    8426.9567 
    1400    800.91695    859.66457      2204118          147  0.007193656    5527.6439    7423.2247 
    1500    793.90923    748.45538      2204118          147  0.007193656    4705.3981    6584.3932 
    1600    790.44868    653.11566      2204118          147  0.007193656    4004.0388    5874.8436 
    1700      788.672    571.14452      2204118          147  0.007193656    3404.6381     5271.238 
    1800     788.3731    500.53657      2204118          147  0.007193656    2891.6174    4757.5098 
    1900    789.20837    439.64833      2204118          147  0.007193656    2452.5275    4320.3968 
    2000    790.70765    386.93358      2204118          147  0.007193656    2075.4289    3946.8466 
    2100    791.74685    341.17905      2204118          147  0.007193656    1751.1988    3625.0761 
    2200    792.20151    301.44355      2204118          147  0.007193656     1472.662    3347.6154 
    2300    792.93529    266.93418      2204118          147  0.007193656    1233.3475    3110.0375 
    2400    794.18349    236.94747      2204118          147  0.007193656    1027.6991    2907.3433 
    2500    795.22798    210.84106      2204118          147  0.007193656    850.98221    2733.0985 
    2600    795.56534    188.06928      2204118          147  0.007193656    698.94348    2581.8582 
    2700    795.70116    168.25178      2204118          147  0.007193656    568.53791    2451.7741 
    2800    796.40376    151.02096      2204118          147  0.007193656    456.60433    2341.5034 
    2900    797.44821    136.00535      2204118          147  0.007193656     360.5793    2247.9504 
    3000    797.89659    122.83486      2204118          147  0.007193656    277.84733    2166.2796 
    3100    797.64468    111.29192      2204118          147  0.007193656     206.9744    2094.8105 
    3200    797.66036    101.22973      2204118          147  0.007193656    146.55472    2034.4279 
    3300    798.36049    92.491657      2204118          147  0.007193656    95.214864    1984.7451 
    3400     798.9239    84.907775      2204118          147  0.007193656    52.048858    1942.9125 
    3500    798.77424    78.313756      2204118          147  0.007193656    16.036648    1906.5461 
    3600    798.66552    72.565583      2204118          147  0.007193656   -14.103777    1876.1484 
    3700    799.06585    67.562765      2204118          147  0.007193656   -39.428565    1851.7711 
    3800    799.46881    63.241251      2204118          147  0.007193656   -60.015928    1832.1374 
    3900    799.49039    59.461644      2204118          147  0.007193656   -76.833823    1815.3706 
    4000    799.30827    56.141305      2204118          147  0.007193656   -90.651269    1801.1221 
    4100    799.31182    53.244286      2204118          147  0.007193656   -102.07023    1789.7116 
    4200    799.59646    50.721049      2204118          147  0.007193656   -111.57049     1780.885 
    4300    799.83322    48.522116      2204118          147  0.007193656   -119.11097    1773.9049 
    4400    799.75204    46.560002      2204118          147  0.007193656   -125.41377    1767.4099 
    4500    799.56595    44.828582      2204118          147  0.007193656   -130.44254    1761.9407 
    4600    799.64211    43.333627      2204118          147  0.007193656   -134.19222    1758.3713 
    4700    799.90689     42.04612      2204118          147  0.007193656   -136.86598    1756.3242 
    4800    799.97495    40.932562      2204118          147  0.007193656   -138.46571    1754.8855 
    4900    799.78963    39.956628      2204118          147  0.007193656    -139.3144    1753.5983 
    5000      799.713    39.119241      2204118          147  0.007193656   -139.48181    1753.2495 
    5100    799.91439     38.40885      2204118          147  0.007193656   -139.12106    1754.0869 
    5200    800.08664    37.801789      2204118          147  0.007193656   -138.22963     1755.386 
    5300    799.96668    37.267952      2204118          147  0.007193656    -136.9698    1756.3619 
    5400    799.78245    36.813509      2204118          147  0.007193656   -135.31201    1757.5836 
    5500    799.86698    36.437231      2204118          147  0.007193656   -133.44394    1759.6518 
    5600    800.09687     36.12901      2204118          147  0.007193656   -131.34179     1762.298 
    5700    800.09961    35.860911      2204118          147  0.007193656   -129.09156    1764.5547 
    5800    799.88272    35.629983      2204118          147  0.007193656   -126.68615    1766.4468 
    5900    799.82379    35.451468      2204118          147  0.007193656   -124.12381    1768.8697 
    6000    800.03317    35.322263      2204118          147  0.007193656   -121.49269    1771.9964 
    6100    800.16615    35.221042      2204118          147  0.007193656   -118.81626    1774.9875 
    6200    800.00576    35.134586      2204118          147  0.007193656   -116.09179    1777.3324 
    6300    799.82946    35.071282      2204118          147  0.007193656   -113.36453    1779.6424 
    6400    799.94085    35.044281      2204118          147  0.007193656   -110.62488    1782.6457 
    6500    800.15812    35.042116      2204118          147  0.007193656   -107.88034    1785.9044 
    6600    800.11817    35.042424      2204118          147  0.007193656   -105.17561    1788.5146 
    6700    799.89205    35.048352      2204118          147  0.007193656   -102.48883    1790.6662 
    6800    799.86449    35.075235      2204118          147  0.007193656   -99.853748    1793.2361 
    6900    800.08528    35.125206      2204118          147  0.007193656    -97.25247    1796.3599 
    7000    800.18403    35.177497      2204118          147  0.007193656    -94.70783    1799.1383 
    7100    799.99548    35.222594      2204118          147  0.007193656   -92.225699    1801.1741 
    7200    799.83849    35.275594      2204118          147  0.007193656    -89.79999    1803.2283 
    7300    799.97911    35.346595      2204118          147  0.007193656   -87.466579    1805.8945 
    7400    800.18048      35.4243      2204118          147  0.007193656   -85.208608    1808.6291 
    7500    800.10259    35.493441      2204118          147  0.007193656   -82.993017    1810.6603 
    7600     799.8763    35.556916      2204118          147  0.007193656   -80.870339    1812.2474 
    7700    799.88338    35.635595      2204118          147  0.007193656   -78.797503     1814.337 
    7800    800.11194    35.728019      2204118          147  0.007193656   -76.781517     1816.894 
    7900     800.1759    35.813284      2204118          147  0.007193656   -74.846977    1818.9799 
    8000    799.96648    35.886041      2204118          147  0.007193656   -72.985003    1820.3462 
    8100    799.83717    35.964486      2204118          147  0.007193656   -71.170547    1821.8546 
    8200    800.00846    36.060395      2204118          147  0.007193656   -69.375057    1824.0555 
    8300    800.19283    36.156097      2204118          147  0.007193656    -67.64438    1826.2225 
    8400    800.07937    36.235994      2204118          147  0.007193656    -65.97214    1827.6263 
    8500    799.85965    36.306866      2204118          147  0.007193656   -64.393379     1828.685 
    8600    799.90356    36.386817      2204118          147  0.007193656   -62.904618    1830.2777 
    8700     800.1365    36.474347      2204118          147  0.007193656   -61.469406    1832.2642 
    8800    800.16385    36.549397      2204118          147  0.007193656   -60.101196    1833.6971 
    8900    799.94502    36.605615      2204118          147  0.007193656   -58.877252    1834.4032 
    9000    799.85401    36.669768      2204118          147  0.007193656   -57.673999     1835.391 
    9100    800.04468    36.751893      2204118          147  0.007193656   -56.579396    1836.9369 
    9200     799.8485    36.958539      2204118          147  0.007193656   -54.718133    1838.3338 
    9300    797.06495    38.141481      2204118          147  0.007193656   -44.732922    1841.7311 
    9400    802.42692    38.326567      2204118          147  0.007193656   -45.460204    1853.6943 
    9500    798.58066    39.966229      2204118          147  0.007193656   -32.165777    1857.8855 
    9600    802.26637    40.031354      2204118          147  0.007193656   -33.456593    1865.3179 
    9700    799.52916    41.302206      2204118          147  0.007193656   -23.395608    1868.9006 
    9800    797.93775    42.263655      2204118          147  0.007193656   -16.411831    1872.1178 
    9900    806.93446    40.923666      2204118          147  0.007193656   -30.424815     1879.398 
   10000    795.27549    42.377428      2204118          147  0.007193656   -16.904906    1865.3238 
   10100    784.23262    46.794032      2204118          147  0.007193656    17.983249    1874.0761 
   10200    808.27759    49.635453      2204118          147  0.007193656    29.142538    1942.1442 
   10300    825.58767    49.302591      2204118          147  0.007193656    19.288031    1973.2585 
   10400    789.20972    50.146007      2204118          147  0.007193656    37.235554    1905.1081 
   10500    777.92869    49.703096      2204118          147  0.007193656    36.711083    1877.8841 
   10600    803.52017    51.559392      2204118          147  0.007193656     40.43548    1942.1774 
   10700    823.40906    53.871459      2204118          147  0.007193656    49.806863    1998.6211 
   10800    809.22363    51.804952      2204118          147  0.007193656     38.25668    1953.4974 
   10900    770.27086    52.027695      2204118          147  0.007193656    52.652971    1875.7017 
   11000    782.57133    54.238117      2204118          147  0.007193656    63.442266    1915.6033 
   11100    827.25814    56.859755      2204118          147  0.007193656    66.392481    2024.3166 
   11200    829.28471    55.021894      2204118          147  0.007193656      51.6933    2014.4138 
   11300    778.57164    51.386532      2204118          147  0.007193656    41.724645    1884.4193 
   11400    755.18614    53.004217      2204118          147  0.007193656    60.015894    1847.3627 
   11500    811.39955    56.394213      2204118          147  0.007193656    61.729784    1982.1204 
   11600    843.44386    62.218415      2204118          147  0.007193656    91.567842    2087.7997 
   11700    810.70547    60.131098      2204118          147  0.007193656    87.225353    2005.9732 
   11800    761.86012    56.346284      2204118          147  0.007193656    76.651203    1879.7937 
   11900    773.42237    56.489566      2204118          147  0.007193656    73.400932    1903.9085 
   12000    825.46494    60.304308      2204118          147  0.007193656    82.696529    2036.3765 
   12100    837.85933    61.347233      2204118          147  0.007193656    85.730234    2068.7449 
   12200    795.44927    56.279007      2204118          147  0.007193656    63.327991     1945.968 
   12300    755.72764    54.841034      2204118          147  0.007193656    67.276672     1855.905 
   12400    791.02335    56.565489      2204118          147  0.007193656      65.7738    1937.9387 
   12500    837.78697    61.692785      2204118          147  0.007193656    85.251269    2068.0946 
   12600    818.46775    63.908865      2204118          147  0.007193656    107.01939    2044.1387 
   12700    776.93758    61.227552      2204118          147  0.007193656     100.7742    1939.6015 
   12800     780.7631    59.039939      2204118          147  0.007193656    83.445675     1931.327 
   12900    816.41021    58.768555      2204118          147  0.007193656     68.06048    2000.3101 
   13000     811.6524    61.861203      2204118          147  0.007193656     91.27219    2012.2612 
   13100    795.72712    61.320127      2204118          147  0.007193656    91.756523    1975.0542 
   13200    789.34723    60.109376      2204118          147  0.007193656     84.15016    1952.3481 
   13300    790.98812    63.343149      2204118          147  0.007193656    107.26843      1979.35 
   13400    821.62791    61.997561      2204118          147  0.007193656    85.120316     2029.719 
   13500    803.46812    63.446193      2204118          147  0.007193656    102.24298    2003.8617 
   13600    785.26358    62.607322      2204118          147  0.007193656    102.12045    1960.6534 
   13700    791.19609    62.890883      2204118          147  0.007193656    102.26716    1974.8409 
   13800    817.70877    61.751608      2204118          147  0.007193656    84.054256    2019.3773 
   13900     800.2576    64.076194      2204118          147  0.007193656    107.71737    2001.7376 
   14000    795.91242    61.461079      2204118          147  0.007193656    87.627423    1971.3636 
   14100    784.03937    67.270214      2204118          147  0.007193656    133.90094    1989.5365 
   14200    817.87531     68.59744      2204118          147  0.007193656    130.04291    2065.7601 
   14300    823.54497    66.444958      2204118          147  0.007193656     110.5373    2059.6732 
   14400    771.58207    68.070705      2204118          147  0.007193656    141.47713    1967.6292 
   14500    781.92914    65.837413      2204118          147  0.007193656    120.69939    1971.3405 
   14600    803.09189    71.802583      2204118          147  0.007193656    158.32268     2059.051 
   14700    800.90914    80.147378      2204118          147  0.007193656    221.18706    2116.7493 
   14800    821.69897    72.403334      2204118          147  0.007193656    151.19284    2095.9597 
   14900    763.06388    76.511566      2204118          147  0.007193656    202.27042    2008.2619 
   15000    781.10187    78.787479      2204118          147  0.007193656    211.48154    2060.1647 
   15100    830.29118    82.836299      2204118          147  0.007193656     225.9992    2191.1018 
   15200    831.82731    78.806283      2204118          147  0.007193656    194.33376     2163.072 
   15300    771.33332    75.933692      2204118          147  0.007193656     194.6495    2020.2128 
   15400    757.90697     76.31411      2204118          147  0.007193656    202.83327    1996.6196 
   15500    810.84101    76.974439      2204118          147  0.007193656    187.12146    2106.1901 
   15600    827.96828    80.933663      2204118          147  0.007193656    209.09651    2168.7013 
   15700    806.74345    81.002889      2204118          147  0.007193656    218.03066    2127.4014 
   15800     786.8635    78.609763      2204118          147  0.007193656    207.59949     2069.919 
   15900    798.45578    75.419111      2204118          147  0.007193656    179.02752    2068.7833 
   16000     790.7372     79.30727      2204118          147  0.007193656    210.00033     2081.488 
   16100    792.97505    85.201513      2204118          147  0.007193656    252.71989     2129.504 
   16200    810.43828    89.671132      2204118          147  0.007193656    281.30154     2199.417 
   16300    814.82266    87.226201      2204118          147  0.007193656    262.06912    2190.5614 
   16400     795.6349    80.751197      2204118          147  0.007193656    221.40604    2104.4854 
   16500    769.04656    76.637834      2204118          147  0.007193656     198.5655    2018.7166 
   16600    760.00046     85.34963      2204118          147  0.007193656    265.00725    2063.7484 
   16700    854.54663     85.15075      2204118          147  0.007193656    228.57966    2251.0892 
   16800    829.48961    87.685524      2204118          147  0.007193656    256.73915    2219.9446 
   16900    773.46207    79.090697      2204118          147  0.007193656    210.93598    2041.5375 
   17000    753.67412    77.931191      2204118          147  0.007193656    210.52981     1994.298 
   17100    816.81035    79.261306      2204118          147  0.007193656    197.50433     2130.701 
   17200    843.39299    82.849541      2204118          147  0.007193656    214.06625    2210.1777 
   17300    807.85236    79.312388      2204118          147  0.007193656     199.5167    2111.5119 
   17400    754.03432    79.194595      2204118          147  0.007193656    217.26568    2001.8864 
   17500    784.23928    81.815786      2204118          147  0.007193656    225.20272    2081.3114 
   17600    853.49535    86.227225      2204118          147  0.007193656    234.41751    2254.4389 
   17700    847.87144    80.302719      2204118          147  0.007193656    190.96286    2197.6738 
   17800    749.48788    79.199634      2204118          147  0.007193656    217.97405    1991.8344 
   17900    752.54866    78.181096      2204118          147  0.007193656    209.68384    1990.7883 
   18000    827.72787     82.17915      2204118          147  0.007193656    212.43675    2171.4726 
   18100    856.58321     83.97091      2204118          147  0.007193656    214.99518    2242.3248 
   18200     802.8165    78.217879      2204118          147  0.007193656    192.04811    2092.1246 
   18300    742.39986    76.010324      2204118          147  0.007193656    199.50026    1956.5849 
   18400    775.49757    76.697177      2204118          147  0.007193656    192.84004    2028.2591 
   18500    854.48251    78.884188      2204118          147  0.007193656    180.96028     2203.318 
   18600    836.68165    79.623136      2204118          147  0.007193656    192.36849    2172.5958 
   18700    757.09452    77.900946      2204118          147  0.007193656    208.03138    1999.8948 
   18800    771.02622    72.485477      2204118          147  0.007193656     162.2652    1987.1017 
   18900    805.63432    79.692527      2204118          147  0.007193656    205.22013    2111.9658 
   19000    845.13342    79.596768      2204118          147  0.007193656    189.21363    2189.4443 
   19100    799.05926    79.474056      2204118          147  0.007193656    203.59448    2094.7785 
   19200    763.19414     78.43695      2204118          147  0.007193656     208.2928    2014.5926 
   19300    800.12489    75.650051      2204118          147  0.007193656    173.45227    2067.1584 
   19400     828.9206    76.499556      2204118          147  0.007193656    170.38943    2132.2482 
   19500    811.42936     73.66102      2204118          147  0.007193656    156.55707    2077.0182 
   19600    767.26833    72.477263      2204118          147  0.007193656    164.92037    1980.8628 
   19700    781.54321    71.670055      2204118          147  0.007193656    152.88715    2002.6149 
   19800    803.87967    80.528448      2204118          147  0.007193656     211.3907    2113.9835 
   19900    856.49361    75.284658      2204118          147  0.007193656    153.02729    2180.1448 
   20000     781.6017    75.151563      2204118          147  0.007193656    179.70527    2029.5714 
   20100    743.04566    74.963946      2204118          147  0.007193656    190.81892     1949.432 
   20200    805.28601    77.486381      2204118          147  0.007193656     187.1106    2093.0319 
   20300    859.89732    80.803466      2204118          147  0.007193656    193.22769     2228.401 
   20400    812.17007    78.026079      2204118          147  0.007193656    190.59495    2112.8092 
   20500    752.70722    71.862959      2204118          147  0.007193656    166.82931    1948.3091 
   20600    756.78364    74.513898      2204118          147  0.007193656    185.45195    1976.5796 
   20700    834.85013    79.726211      2204118          147  0.007193656    195.79134    2171.6839 
   20800    864.12392    78.390927      2204118          147  0.007193656    174.84737    2220.0241 
   20900    784.32475    72.137235      2204118          147  0.007193656    157.98962    2014.3006 
   21000    730.77386    68.515164      2204118          147  0.007193656    151.87166    1881.4403 
   21100    789.80285    70.020739      2204118          147  0.007193656    142.26003    2011.5363 
   21200    864.09956    76.220209      2204118          147  0.007193656     162.4485    2207.5675 
   21300    839.35848    72.332758      2204118          147  0.007193656    141.66807    2128.2308 
   21400    746.93075    68.139323      2204118          147  0.007193656    144.63333    1912.4415 
   21500    762.68329    61.860943      2204118          147  0.007193656    92.485452    1897.5762 
   21600    810.97196    68.887307      2204118          147  0.007193656    127.67146      2047.05 
   21700    852.49885    71.833885      2204118          147  0.007193656    133.92482    2151.5877 
   21800    801.39259    70.966013      2204118          147  0.007193656     145.9589    2042.6654 
   21900    762.67274    66.066717      2204118          147  0.007193656    124.44936    1929.5151 
   22000    792.70099    62.350294      2204118          147  0.007193656    86.664672    1962.8002 
   22100    799.09738    71.233337      2204118          147  0.007193656    150.00463    2041.2789 
   22200    833.17041    71.206163      2204118          147  0.007193656    136.10452    2108.0216 
   22300    808.62506    70.164396      2204118          147  0.007193656    136.87445    2050.6985 
   22400    763.34131    71.073673      2204118          147  0.007193656       159.21    1965.8581 
   22500    796.40143     69.72119      2204118          147  0.007193656    137.31149    2022.2051 
   22600    829.78188    71.071103      2204118          147  0.007193656    136.90294    2100.8001 
   22700     815.9822    68.024589      2204118          147  0.007193656    121.03516    2052.2718 
   22800    770.94969    65.562024      2204118          147  0.007193656    121.21175    1945.8671 
   22900    784.69673    62.899415      2204118          147  0.007193656    98.031273    1955.2226 
   23000    818.30368    65.069788      2204118          147  0.007193656     103.1135    2039.8445 
   23100    818.85756    66.332862      2204118          147  0.007193656    110.82818    2048.8701 
   23200    784.99661    67.690599      2204118          147  0.007193656     131.5865    1989.4876 
   23300    778.49663    69.492529      2204118          147  0.007193656    146.02343    1988.5406 
   23400    809.32421    72.195667      2204118          147  0.007193656     154.1423     2069.621 
   23500    835.57641    70.815555      2204118          147  0.007193656    135.42012    2113.0316 
   23600    807.05476    64.542319      2204118          147  0.007193656    101.01661    2011.1241 
   23700    758.19344    61.362072      2204118          147  0.007193656     96.41326    1890.8776 
   23800    780.81297    62.242543      2204118          147  0.007193656    95.966107    1943.9655 
   23900    838.73292    65.889983      2204118          147  0.007193656    102.54685    2087.6291 
   24000    831.12162    66.444593      2204118          147  0.007193656    109.29347    2076.3615 
   24100    779.25774    61.480946      2204118          147  0.007193656    91.763283    1936.0818 
   24200    761.87316     58.59272      2204118          147  0.007193656    77.490278    1880.6636 
   24300    803.99453    60.592674      2204118          147  0.007193656    77.800393     1980.665 
   24400    835.17522    63.977796      2204118          147  0.007193656    91.400069     2068.062 
   24500    802.21742    65.137101      2204118          147  0.007193656    111.66192    2010.3206 
   24600     777.5813    61.702365      2204118          147  0.007193656    93.844498    1934.1953 
   24700    784.22865    62.849587      2204118          147  0.007193656    99.211823    1955.2953 
   24800    810.97008    67.787901      2204118          147  0.007193656    125.60477    2044.9789 
   24900    831.72501    67.124701      2204118          147  0.007193656     113.0438    2081.5399 
   25000    789.55577    66.670767      2204118          147  0.007193656    126.18821    1994.8797 
   25100    768.24984    64.987771      2204118          147  0.007193656    121.96163    1940.2271 
   25200    801.95532    64.800938      2204118          147  0.007193656     110.0193    2008.0576 
   25300    841.07731     61.01919      2204118          147  0.007193656    68.820918    2059.4517 
   25400    787.77634    61.644864      2204118          147  0.007193656    92.623669    1957.1037 
   25500     764.1178    61.268249      2204118          147  0.007193656    96.905426    1905.3913 
   25600    796.41574    65.661576      2204118          147  0.007193656    117.97404    2002.9015 
   25700    841.96765    67.173394      2204118          147  0.007193656    112.98929    2105.7273 
   25800      817.272    64.523553      2204118          147  0.007193656    103.79602    2038.0853 
   25900    768.58851    59.652781      2204118          147  0.007193656    86.586336    1905.6533 
   26000      766.767     59.54503      2204118          147  0.007193656    87.306495    1902.0624 
   26100    823.50381    61.366932      2204118          147  0.007193656    80.723104    2029.7616 
   26200    835.41811    63.195216      2204118          147  0.007193656    89.531527    2066.7683 
   26300    784.86614    62.510168      2204118          147  0.007193656    102.08872     1959.681 
   26400    768.23363    61.079095      2204118          147  0.007193656    97.158405    1915.3855 
   26500    806.07629    61.953432      2204118          147  0.007193656    89.779481    1997.5712 
   26600    832.10244    63.982895      2204118          147  0.007193656    94.976651    2064.3661 
   26700    802.28941    64.145272      2204118          147  0.007193656    106.38619    2005.2152 
   26800    773.23638    62.465454      2204118          147  0.007193656    103.59926    1933.6666 
   26900     770.3513    68.474968      2204118          147  0.007193656    149.75675    1972.9959 
   27000    830.84922    68.591183      2204118          147  0.007193656    126.62461    2093.0479 
   27100    820.35432    71.617941      2204118          147  0.007193656    152.51649    2094.1009 
   27200    785.63452    68.274253      2204118          147  0.007193656    138.73278    1998.1436 
   27300    776.22829    65.822912      2204118          147  0.007193656    124.64115    1961.7897 
   27400     815.0511    62.044727      2204118          147  0.007193656    83.605706    2012.6386 
   27500    805.25793    65.234795      2204118          147  0.007193656     111.6045    2017.4593 
   27600    794.55023    64.257763      2204118          147  0.007193656    108.24755    1988.7598 
   27700    795.32029    63.303603      2204118          147  0.007193656    101.76049    1984.0953 
   27800    807.55912    63.024081      2204118          147  0.007193656    96.046217    2007.3474 
   27900     805.3418    63.389659      2204118          147  0.007193656    99.381718     2005.435 
   28000    785.43808    66.430011      2204118          147  0.007193656    128.99965    1987.9456 
   28100    799.92547    66.462898      2204118          147  0.007193656    123.40567    2016.6398 
   28200    811.74475    67.566975      2204118          147  0.007193656     127.3605    2048.5681 
   28300    805.85663    67.804407      2204118          147  0.007193656    131.77721     2039.049 
   28400    795.32677    65.499636      2204118          147  0.007193656    118.90726    2001.2574 
   28500    790.10919    64.488715      2204118          147  0.007193656    114.56414    1984.5655 
   28600    811.39057    61.429947      2204118          147  0.007193656    84.831286    2005.2006 
   28700    798.21959    62.959802      2204118          147  0.007193656     101.1646    1990.3613 
   28800    787.20327    63.856212      2204118          147  0.007193656    110.61681    1973.7405 
   28900    791.86689    67.662268      2204118          147  0.007193656       135.96    2010.1214 
   29000    820.49796    69.988013      2204118          147  0.007193656    142.30701    2084.2314 
   29100    814.15709    71.741839      2204118          147  0.007193656    158.63703    2085.5541 
   29200    802.65802    65.257616      2204118          147  0.007193656    114.56567    2014.2671 
   29300    783.85235    61.013953      2204118          147  0.007193656    91.099404    1946.2923 
   29400    782.90883    60.710475      2204118          147  0.007193656    89.732203     1942.692 
   29500    803.51349    64.880679      2204118          147  0.007193656    113.11614    2014.8423 
   29600    823.42662     68.25353      2204118          147  0.007193656    130.80445    2079.6603 
   29700    814.31325    66.337099      2204118          147  0.007193656    120.58721    2047.8738 
   29800    783.89279    62.626472      2204118          147  0.007193656    104.27353    1959.5621 
   29900    772.29182     63.53848      2204118          147  0.007193656    115.80597    1943.6378 
   30000    819.76968    62.627018      2204118          147  0.007193656    91.509456    2031.7102 
   30100      819.986    66.546216      2204118          147  0.007193656    119.87825    2060.5909 
   30200    795.44318    65.110866      2204118          147  0.007193656     115.4489    1998.0745 
   30300    762.81424    69.768747      2204118          147  0.007193656    160.69211    1966.0928 
   30400    816.06393    70.284857      2204118          147  0.007193656    145.45773    2076.8878 
   30500    835.41979    73.246602      2204118          147  0.007193656    162.48161    2139.7224 
   30600    809.96171    67.079882      2204118          147  0.007193656    125.34397    2042.3315 
   30700    753.98561    66.268851      2204118          147  0.007193656    140.40432    1924.9097 
   30800    781.56013    65.027056      2204118          147  0.007193656    119.74427     1969.512 
   30900    825.98581    72.219118      2204118          147  0.007193656    156.72766    2111.6405 
   31000    839.95752     74.17006      2204118          147  0.007193656    165.29139    2153.2719 
   31100    787.79944     73.08255      2204118          147  0.007193656    176.93028     2041.465 
   31200    776.73898    65.153244      2204118          147  0.007193656    121.51302    1959.8702 
   31300    782.05762    67.374607      2204118          147  0.007193656    136.32001    1987.2652 
   31400    817.72666    71.516856      2204118          147  0.007193656    154.80177    2090.1671 
   31500    834.55064    69.059296      2204118          147  0.007193656    129.47003    2104.6538 
   31600    781.33045     68.54852      2204118          147  0.007193656    144.45368    1993.6778 
   31700    775.51142    64.911212      2204118          147  0.007193656    117.20299    1952.6549 
   31800    786.54314    73.209563      2204118          147  0.007193656    174.31834    2035.8797 
   31900    847.91478    72.299339      2204118          147  0.007193656    144.45585    2151.2693 
   32000    816.79295    70.995603      2204118          147  0.007193656    147.05455      2080.21 
   32100    766.72618    66.577891      2204118          147  0.007193656    133.95003    1948.6093 
   32200    777.27523     62.82441      2204118          147  0.007193656    103.06039    1942.6868 
   32300    801.49152     68.74675      2204118          147  0.007193656    138.63003    2035.5706 
   32400    836.95058    70.674233      2204118          147  0.007193656    140.41642    2121.2802 
   32500    803.16887    71.559574      2204118          147  0.007193656    159.87245     2060.783 
   32600    773.16505    67.817259      2204118          147  0.007193656    142.29165    1972.1902 
   32700    786.43552    67.508648      2204118          147  0.007193656    134.70048    1996.0071 
   32800    812.48577    72.088154      2204118          147  0.007193656    159.18827    2082.1497 
   32900    830.35875    70.785946      2204118          147  0.007193656    143.14048     2108.403 
   33000    800.34913    65.442608      2204118          147  0.007193656    113.66644    2007.9033 
   33100    756.32929    66.910106      2204118          147  0.007193656    141.50484    1931.5572 
   33200    801.86255    65.329188      2204118          147  0.007193656    112.86485    2010.6836 
   33300    830.73422    67.656364      2204118          147  0.007193656    119.04541    2085.1966 
   33400    805.32801    69.085494      2204118          147  0.007193656    137.73218    2043.7529 
   33500    774.85449    70.344307      2204118          147  0.007193656    157.27229    1991.1694 
   33600    801.39899    69.846539      2204118          147  0.007193656    143.93181    2040.6534 
   33700    827.93921    69.261287      2204118          147  0.007193656     130.5848    2090.1208 
   33800     792.6918    69.532098      2204118          147  0.007193656    144.57787    2020.6916 
   33900    764.32613    70.715543      2204118          147  0.007193656    162.38373    1971.3627 
   34000    803.99033    72.036889      2204118          147  0.007193656    158.01093    2060.8656 
   34100    842.22957    71.719161      2204118          147  0.007193656    142.36033    2135.7183 
   34200    794.31473    71.993188      2204118          147  0.007193656    163.15977    2043.1146 
   34300    770.96587    67.261724      2204118          147  0.007193656    137.39131    1962.0849 
   34400     786.7948    68.549756      2204118          147  0.007193656    143.34141    2005.4984 
   34500    828.98467    71.122449      2204118          147  0.007193656    149.06306    2111.0734 
   34600    834.78097    66.469705      2204118          147  0.007193656    112.44683    2088.1757 
   34700    771.25975    63.327606      2204118          147  0.007193656    113.38333    1938.7725 
   34800    757.57745      61.9602      2204118          147  0.007193656    107.70716    1900.7136 
   34900     801.4743    67.073849      2204118          147  0.007193656    128.00556    2024.9054 
   35000    840.36634    73.302712      2204118          147  0.007193656    158.21097    2147.1591 
   35100    817.46956    73.609163      2204118          147  0.007193656    166.54044    2101.2973 
   35200    765.86349    72.890145      2204118          147  0.007193656    178.90844     1991.526 
   35300    774.18972     72.89196      2204118          147  0.007193656    176.87146    2009.1952 
   35400    844.84504    66.933168      2204118          147  0.007193656    107.01579    2106.5639 
   35500     802.4768    70.089445      2204118          147  0.007193656    146.62095    2045.8935 
   35600    770.71668    67.928674      2204118          147  0.007193656    140.95324    1965.0571 
   35700    776.97255    71.658508      2204118          147  0.007193656    166.06888    2004.9789 
   35800    830.46954    74.799509      2204118          147  0.007193656    170.31075    2135.8355 
   35900    841.27322    71.655445      2204118          147  0.007193656    143.07919    2134.1737 
   36000    768.46136    68.191368      2204118          147  0.007193656    142.90393      1961.67 
   36100     748.6965    67.755134      2204118          147  0.007193656    147.33111    1919.3184 
   36200    821.30589    68.762752      2204118          147  0.007193656     130.4414    2074.2779 
   36300    858.49459    68.056447      2204118          147  0.007193656    113.29704    2145.1504 
   36400    792.31759    63.479744      2204118          147  0.007193656    103.52552    1978.7536 
   36500    737.40529    63.263679      2204118          147  0.007193656    121.48363    1866.7473 
   36600    782.17901    68.558962      2204118          147  0.007193656    143.92579    1995.1583 
   36700    863.38708    74.201753      2204118          147  0.007193656    155.81277    2199.2455 
   36800    844.25118    73.198349      2204118          147  0.007193656    153.98799    2152.1306 
   36900    752.83412    71.355436      2204118          147  0.007193656    173.45575    1955.2358 
   37000    767.94142    64.617195      2204118          147  0.007193656    117.77841    1935.3139 
   37100     806.5018    70.904812      2204118          147  0.007193656     150.9977    2059.7965 
   37200    843.45032    72.426402      2204118          147  0.007193656    148.17549    2144.4226 
   37300    800.77678    70.649368      2204118          147  0.007193656    150.61938    2045.8684 
   37400    763.35411    67.886227      2204118          147  0.007193656    145.54521    1952.2236 
   37500    803.38031    62.043186      2204118          147  0.007193656     89.10683    1990.5178 
   37600    809.72597    65.668001      2204118          147  0.007193656    114.60881    2031.0384 
   37700    800.42313    68.949879      2204118          147  0.007193656    142.25164    2036.6636 
   37800    805.59645    67.191761      2204118          147  0.007193656    128.61941    2035.2754 
   37900    806.42649    63.011134      2204118          147  0.007193656     98.85014    2007.4707 
   38000    783.80284    62.567123      2204118          147  0.007193656     103.5731    1958.6488 
   38100    786.71207     64.48821      2204118          147  0.007193656    115.32786     1977.289 
   38200    815.81516    66.669373      2204118          147  0.007193656    120.13013    2050.9714 
   38300    814.87015    68.310535      2204118          147  0.007193656    132.35148    2060.9561 
   38400    794.73469    66.402947      2204118          147  0.007193656    124.91147    2005.8603 
   38500     783.2009    65.671968      2204118          147  0.007193656    123.48065    1977.1317 
   38600    796.35741    67.855444      2204118          147  0.007193656    134.99063      2019.78 
   38700    820.90588    68.276636      2204118          147  0.007193656    130.47484    2073.3646 
   38800    822.77562    61.962755      2204118          147  0.007193656    85.399606    2032.7147 
   38900     778.7431    56.863978      2204118          147  0.007193656    65.044198    1908.1447 
   39000    756.28196     59.08955      2204118          147  0.007193656    89.768255    1879.7085 
   39100    817.89149    60.860509      2204118          147  0.007193656    79.032457    2014.7879 
   39200    835.50005    66.746719      2204118          147  0.007193656    114.54532    2091.9761 
   39300     798.2361    67.528657      2204118          147  0.007193656    132.73454    2021.9703 
   39400    784.26172    62.782225      2204118          147  0.007193656    102.40956    1958.5713 
   39500    782.04574     65.08413      2204118          147  0.007193656    121.28643    1972.2035 
   39600    821.55627     64.75881      2204118          147  0.007193656    104.33274    2048.7619 
   39700    818.34419    65.839968      2204118          147  0.007193656    113.50455    2050.3314 
   39800    787.68704    63.786137      2204118          147  0.007193656    108.78315    1973.0518 
   39900    774.60563    64.106482      2204118          147  0.007193656    115.65898    1948.9671 
   40000    811.22622    63.783362      2204118          147  0.007193656    99.076342    2019.0567 
   40100    815.48478    67.800624      2204118          147  0.007193656    127.45366     2057.513 
   40200    805.84979    66.169232      2204118          147  0.007193656    119.29247    2026.5481 
   40300    792.62992    62.372902      2204118          147  0.007193656    96.888424    1972.8557 
   40400    784.25115    62.196177      2204118          147  0.007193656    99.017633    1955.1544 
   40500    797.34202    65.399082      2204118          147  0.007193656    117.79186    2004.9116 
   40600    816.92206    69.417748      2204118          147  0.007193656    139.88644    2073.3475 
   40700    803.25433     73.46695      2204118          147  0.007193656    175.02934    2076.1421 
   40800    801.79793    68.506233      2204118          147  0.007193656    138.53489    2036.2007 
   40900     789.0492    64.965572      2204118          147  0.007193656    117.06903    1984.5616 
   41000    786.10019    64.850288      2204118          147  0.007193656    117.94991    1978.4629 
   41100    816.63326    63.041207      2204118          147  0.007193656    94.142592    2026.9201 
   41200    815.14361    62.039209      2204118          147  0.007193656    87.757633    2017.0095 
   41300    778.01263    62.941132      2204118          147  0.007193656    107.43109    1948.8027 
   41400    772.89012    66.748771      2204118          147  0.007193656    137.08446    1966.3323 
   41500    823.59674    68.017596      2204118          147  0.007193656    127.08227    2076.3407 
   41600    821.48184    70.836071      2204118          147  0.007193656    147.78882    2092.0418 
   41700     787.8215    69.563641      2204118          147  0.007193656    150.01541    2014.6023 
   41800    778.67865    67.490851      2204118          147  0.007193656    138.20324    1981.1512 
   41900    804.39616    65.520223      2204118          147  0.007193656    113.87613    2017.6913 
   42000    808.96553    68.050089      2204118          147  0.007193656    130.99237    2045.6222 
   42100    806.16972    68.287897      2204118          147  0.007193656    134.68151    2042.6943 
   42200    796.75334    67.161085      2204118          147  0.007193656    130.57007    2016.2965 
   42300    797.92427     64.75189      2204118          147  0.007193656    113.13349    2001.6313 
   42400    797.14944    64.937635      2204118          147  0.007193656    114.59635    2001.2603 
   42500    790.39778    69.599896      2204118          147  0.007193656    151.63588    2022.3202 
   42600    816.76431    68.996159      2204118          147  0.007193656    138.33133     2071.419 
   42700    809.61935    68.372895      2204118          147  0.007193656    137.73879    2053.9161 
   42800    784.84546    66.551844      2204118          147  0.007193656    133.41795    1990.9613 
   42900    795.17371    64.476595      2204118          147  0.007193656    115.83037    1997.8182 
   43000    822.67132    60.313285      2204118          147  0.007193656     75.35788    2022.4261 
   43100    788.36882    62.425932      2204118          147  0.007193656    103.19841    1969.0807 
   43200    776.58435    63.552152      2204118          147  0.007193656    113.01216    1951.0034 
   43300    795.62356    69.847748      2204118          147  0.007193656    151.22197    2034.2745 
   43400      841.069    71.729903      2204118          147  0.007193656    148.46638    2139.0775 
   43500    821.38754    67.149074      2204118          147  0.007193656    120.81708    2064.8469 
   43600    761.29896    64.249048      2204118          147  0.007193656     120.8012    1922.6155 
   43700    765.17439    65.420687      2204118          147  0.007193656     127.8078    1938.7944 
   43800    832.16733     68.88153      2204118          147  0.007193656    129.18386    2098.7269 
   43900    855.76247    67.817619      2204118          147  0.007193656    112.72603    2138.1131 
   44000    758.11003    71.361006      2204118          147  0.007193656    174.76068    1969.0276 
   44100    763.83063    66.493113      2204118          147  0.007193656    135.35316    1943.1594 
   44200    817.49634    69.973844      2204118          147  0.007193656    142.71583    2077.5361 
   44300    854.83338    67.378647      2204118          147  0.007193656    109.87388    2133.0621 
   44400    782.39276    65.798981      2204118          147  0.007193656    123.92409    1975.6625 
   44500    744.12669    65.545145      2204118          147  0.007193656    135.21754    1896.3892 
   44600    804.30026     67.44682      2204118          147  0.007193656    126.58126    2030.1695 
   44700     842.5877    74.914618      2204118          147  0.007193656    167.77158    2161.9771 
   44800    835.87872    67.428637      2204118          147  0.007193656    113.42109    2091.7481 
   44900    749.91522     65.16733      2204118          147  0.007193656    127.83572    1902.7074 
   45000    738.37236    70.221249      2204118          147  0.007193656    170.08012    1917.6326 
   45100    850.78393    72.134813      2204118          147  0.007193656    143.67703    2157.2811 
   45200    870.48433    72.268195      2204118          147  0.007193656    138.17213    2198.4024 
   45300    771.70651     66.68458      2204118          147  0.007193656    132.98898    1959.4355 
   45400    731.38341    63.341807      2204118          147  0.007193656    123.51164     1854.523 
   45500    809.39962    63.789347      2204118          147  0.007193656    99.143611    2014.8008 
   45600    851.24053    72.148122      2204118          147  0.007193656    146.65999    2161.3447 
   45700    823.07791    68.964252      2204118          147  0.007193656    132.34176    2080.3723 
   45800    759.63338    64.497196      2204118          147  0.007193656    122.93989    1920.8122 
   45900    771.26829    61.279386      2204118          147  0.007193656    95.684368    1921.0938 
   46000    820.42753    64.913425      2204118          147  0.007193656    105.53135     2047.289 
   46100    832.67617    67.534151      2204118          147  0.007193656    120.22932    2090.9766 
   46200    791.44394    65.936503      2204118          147  0.007193656    122.55914    1995.7195 
   46300    764.45843    65.252021      2204118          147  0.007193656    125.84306    1935.1351 
   46400    787.44563    70.285251      2204118          147  0.007193656    153.99911    2017.6964 
   46500    850.65445    69.168987      2204118          147  0.007193656    121.22713    2134.5248 
   46600    805.52178    72.401811      2204118          147  0.007193656    161.55675     2068.036 
   46700    768.73263     68.82225      2204118          147  0.007193656     147.5346    1966.9427 
   46800    775.14272      69.9356      2204118          147  0.007193656    153.65282    1988.2321 
   46900    821.01968    73.192819      2204118          147  0.007193656    162.66827    2105.8274 
   47000    841.64344    69.455535      2204118          147  0.007193656    129.10466    2121.0754 
   47100    779.19764    66.938131      2204118          147  0.007193656    135.18772     1979.364 
   47200    769.09968    62.003539      2204118          147  0.007193656    103.31033    1923.5871 
   47300    800.14255     64.38239      2204118          147  0.007193656    109.98588    2003.7338 
   47400    826.21456     69.03399      2204118          147  0.007193656    134.76353    2090.2177 
   47500     819.0689     67.93084      2204118          147  0.007193656    129.53757    2068.0797 
   47600    774.73975    66.918482      2204118          147  0.007193656    139.54859    1973.1741 
   47700    779.10441    64.487897      2204118          147  0.007193656    120.04239     1963.998 
   47800    804.64109    68.264444      2204118          147  0.007193656    139.00655    2043.4015 
   47900     819.6426    70.395473      2204118          147  0.007193656     148.6641     2088.564 
   48000    810.80534    66.170505      2204118          147  0.007193656    119.41479     2038.399 
   48100    760.60955    69.537385      2204118          147  0.007193656    163.49384    1963.6765 
   48200    790.00585    68.227932      2204118          147  0.007193656    142.01195    2011.7687 
   48300    830.67316    68.759353      2204118          147  0.007193656     130.4553     2096.462 
   48400     814.8089    69.157368      2204118          147  0.007193656    138.78439    2067.2441 
   48500    779.86828    67.575647      2204118          147  0.007193656    138.97039    1984.7339 
   48600     781.1426    67.181811      2204118          147  0.007193656    135.73998    1984.5195 
   48700    816.62346    67.015733      2204118          147  0.007193656    122.23966     2054.994 
   48800     811.3843    68.760623      2204118          147  0.007193656    137.46615    2057.8206 
   48900    782.46234    69.541048      2204118          147  0.007193656    153.89167    2005.7947 
   49000    795.02141    66.754753      2204118          147  0.007193656     128.5249    2010.1523 
   49100    814.20568    67.186413      2204118          147  0.007193656     125.3694    2052.4014 
   49200    820.09504    65.787581      2204118          147  0.007193656    112.98982    2053.9606 
   49300    768.03409    71.463735      2204118          147  0.007193656    173.71245    1991.4673 
   49400    796.49457    69.230936      2204118          147  0.007193656    145.64892    2030.7629 
   49500    831.86228    68.302183      2204118          147  0.007193656    125.97171    2094.7927 
   49600    786.10912    73.286579      2204118          147  0.007193656    180.22182    2040.7559 
   49700    794.85033    66.617509      2204118          147  0.007193656    127.21133    2008.4338 
   49800    803.94239    63.815848      2204118          147  0.007193656     104.1199    2006.8611 
   49900    796.38295    64.794426      2204118          147  0.007193656    114.55355    1999.4034 
   50000     792.7659    65.940542      2204118          147  0.007193656    124.51058    2000.7997 
   50100    806.22157    64.485626      2204118          147  0.007193656    107.58354    2015.7191 
   50200    800.34883    66.600285      2204118          147  0.007193656    124.55762    2018.7938 
   50300    809.26062    64.737682      2204118          147  0.007193656    106.60808    2021.9363 
   50400    793.23617    65.667067      2204118          147  0.007193656    118.31913    1995.7213 
   50500    771.48457    72.159933      2204118          147  0.007193656    173.90799    1999.8293 
   50600     829.2695    69.436261      2204118          147  0.007193656    133.04435    2095.7289 
   50700    834.00863    66.114134      2204118          147  0.007193656    107.40541    2081.3063 
   50800    760.65894    68.969538      2204118          147  0.007193656    155.57306    1955.8726 
   50900    775.84577    68.651721      2204118          147  0.007193656    148.46099    1984.7042 
   51000    840.95621    66.931614      2204118          147  0.007193656    113.04754    2103.3917 
   51100    821.92872    66.473629      2204118          147  0.007193656    117.44943    2062.7601 
   51200    769.99073    63.054225      2204118          147  0.007193656    111.31765    1933.7034 
   51300    761.06187    64.063376      2204118          147  0.007193656    121.95746    1923.2107 
   51400    819.69096    67.697568      2204118          147  0.007193656    128.42832    2068.4427 
   51500    855.13845    66.325445      2204118          147  0.007193656    105.73879     2129.649 
   51600    786.51124    64.828669      2204118          147  0.007193656    120.12683    1981.6127 
   51700    751.32975    63.323319      2204118          147  0.007193656    122.10942     1900.329 
   51800    800.80834    64.403004      2204118          147  0.007193656    112.04189    2007.3656 
   51900    839.04148    69.442831      2204118          147  0.007193656    135.98873    2121.8012 
   52000    811.37545    68.060667      2204118          147  0.007193656    134.45894    2054.7925 
   52100    766.69437    64.759345      2204118          147  0.007193656    124.48348    1939.0675 
   52200    770.37699     66.50235      2204118          147  0.007193656    135.67459    1958.9745 
   52300    824.63272     70.07481      2204118          147  0.007193656    143.34784    2095.0582 
   52400    853.53012    65.718785      2204118          147  0.007193656    101.73839     2121.842 
   52500    779.79019    61.704871      2204118          147  0.007193656    98.981924    1944.5606 
   52600    743.12265    60.934253      2204118          147  0.007193656    105.97105    1864.7664 
   52700    798.40473    65.088156      2204118          147  0.007193656    116.08403     2005.719 
   52800    861.75142    67.610843      2204118          147  0.007193656    110.95905    2150.5206 
   52900     819.0458    64.054836      2204118          147  0.007193656    99.091545     2037.579 
   53000    742.83673    62.419037      2204118          147  0.007193656    114.03869    1872.1573 
   53100    755.83467    67.248437      2204118          147  0.007193656    145.13477    1934.0164 
   53200    858.20485    69.495551      2204118          147  0.007193656    124.58606    2155.7537 
   53300    857.30886    68.517365      2204118          147  0.007193656    118.53429    2147.5813 
   53400    756.38146     64.86022      2204118          147  0.007193656    128.83009    1919.0059 
   53500    747.58189    59.830795      2204118          147  0.007193656    94.910988    1864.2603 
   53600    814.48748    63.235952      2204118          147  0.007193656    96.041809    2023.7408 
   53700    846.06402    69.508139      2204118          147  0.007193656     129.5144    2131.9476 
   53800    804.16716    69.515833      2204118          147  0.007193656    142.40564    2045.6789 
   53900    764.24328     67.31293      2204118          147  0.007193656     139.3834    1948.1662 
   54000    777.53983    69.958318      2204118          147  0.007193656    154.48999    1994.7426 
   54100     842.9342    69.246765      2204118          147  0.007193656    125.79351    2120.8191 
   54200    815.06592     72.31809      2204118          147  0.007193656     159.8819    2088.9499 
   54300    787.73567    64.928054      2204118          147  0.007193656    115.10767    1979.4914 
   54400    766.88929    64.133472      2204118          147  0.007193656    117.73826    1932.7836 
   54500    798.35941     66.16286      2204118          147  0.007193656    121.39254    2010.9202 
   54600    830.19276    69.055867      2204118          147  0.007193656    131.45446    2096.3241 
   54700    809.68515    69.953028      2204118          147  0.007193656     146.6609    2062.9939 
   54800    799.03908    61.553053      2204118          147  0.007193656    89.518234    1980.6545 
   54900    770.38755    60.710677      2204118          147  0.007193656    95.320229    1918.6451 
   55000    791.28371    61.032368      2204118          147  0.007193656    89.310689    1962.0918 
   55100     822.4032    63.773427      2204118          147  0.007193656    97.498446    2043.9321 
   55200    808.66056    66.327775      2204118          147  0.007193656    120.35564    2034.2637 
   55300    788.59883    64.869887      2204118          147  0.007193656    115.80621    1982.2329 
   55400     785.2385    65.541195      2204118          147  0.007193656    122.02409    1980.4977 
   55500    810.58033    65.787337      2204118          147  0.007193656    114.43849    2032.8902 
   55600    810.21077     68.86009      2204118          147  0.007193656    137.59752    2055.1745 
   55700    804.85383    67.411294      2204118          147  0.007193656    128.08461     2032.983 
   55800     788.6064    66.570779      2204118          147  0.007193656     127.5478    1993.9924 
   55900    792.35119    65.557866      2204118          147  0.007193656    117.81341     1993.121 
   56000    799.70993    68.209459      2204118          147  0.007193656    134.61078    2027.3348 
   56100    821.60504    65.793252      2204118          147  0.007193656    108.79827    2053.3428 
   56200    792.86453    66.643059      2204118          147  0.007193656     126.9147    2003.4373 
   56300    787.19389    63.859566      2204118          147  0.007193656    108.00524    1971.1067 
   56400    790.14144    66.679401      2204118          147  0.007193656    126.66985    1996.7475 
   56500    804.59831    72.104408      2204118          147  0.007193656    159.92639    2064.2201 
   56600     818.2083    75.503865      2204118          147  0.007193656    180.72406    2117.2293 
   56700    829.54409    66.858873      2204118          147  0.007193656     113.0305    2076.3649 
   56800    764.68575    65.527235      2204118          147  0.007193656    128.60497     1938.435 
   56900    763.74611    64.935751      2204118          147  0.007193656    125.16315    1932.7693 
   57000    825.22307    66.225674      2204118          147  0.007193656     111.5051    2064.6127 
   57100    823.68442    72.604572      2204118          147  0.007193656    159.01807     2108.484 
   57200    806.90229    67.802427      2204118          147  0.007193656    129.61554    2039.3622 
   57300    774.58199    63.905691      2204118          147  0.007193656    114.04949    1947.3016 
   57400    781.03503    62.661024      2204118          147  0.007193656    103.31164    1951.8366 
   57500    813.69609    65.663537      2204118          147  0.007193656       113.34    2039.1659 
   57600     809.8095    72.228828      2204118          147  0.007193656    163.61833    2080.2456 
   57700    819.46564     65.54269      2204118          147  0.007193656    109.79755    2049.2787 
   57800    776.94136    64.356366      2204118          147  0.007193656    116.62247    1955.4587 
   57900    769.29769    66.398877      2204118          147  0.007193656    134.10408    1954.8495 
   58000     816.9686    69.699355      2204118          147  0.007193656    140.07911    2073.6503 
   58100    832.80904     72.73414      2204118          147  0.007193656    155.37604    2126.4378 
   58200    796.62409    71.318282      2204118          147  0.007193656    157.45948      2042.88 
   58300    778.91788    65.836544      2204118          147  0.007193656      122.225    1965.7392 
   58400    780.19768    67.869909      2204118          147  0.007193656    137.10964    1983.6528 
   58500     818.7431    69.287528      2204118          147  0.007193656    133.12189    2070.8929 
   58600    829.84079     68.87391      2204118          147  0.007193656    126.12136     2090.158 
   58700    790.90616    66.902806      2204118          147  0.007193656    125.88359    1997.7712 
   58800    758.09064    68.322454      2204118          147  0.007193656    148.47259    1942.6936 
   58900    808.44781    67.229276      2204118          147  0.007193656     121.6239    2035.0284 
   59000    837.99917    67.974743      2204118          147  0.007193656     115.6928    2099.0384 
   59100    782.47664    72.341886      2204118          147  0.007193656    167.28185    2019.2187 
   59200    778.55451    70.855256      2204118          147  0.007193656    157.22294    1999.8771 
   59300    820.14078    68.611996      2204118          147  0.007193656     127.1297    2068.2087 
   59400    829.92083    64.190494      2204118          147  0.007193656    91.993102    2056.2192 
   59500    775.59726    62.435413      2204118          147  0.007193656    98.129892    1933.7849 
   59600    751.09052    66.712207      2204118          147  0.007193656    137.73182    1915.3852 
   59700    813.42672    72.465632      2204118          147  0.007193656    158.32308    2083.5115 
   59800    863.54396    71.972806      2204118          147  0.007193656    137.11135    2180.9154 
   59900    798.31773    68.047593      2204118          147  0.007193656    132.92627    2022.3553 
   60000    741.72559    65.256219      2204118          147  0.007193656    133.42056    1888.9094 
   60100    774.76491    69.100303      2204118          147  0.007193656    151.27701    1984.9621 
   60200    875.68095    66.036274      2204118          147  0.007193656    91.812786    2164.3422 
   60300    811.47387    69.276812      2204118          147  0.007193656    138.84805    2059.4145 
   60400    751.84777    66.346957      2204118          147  0.007193656    137.77981    1917.2254 
   60500    780.18769    65.694424      2204118          147  0.007193656    123.24036    1969.7599 
   60600    830.24898    70.275596      2204118          147  0.007193656    140.25591    2105.2586 
   60700    835.78145    68.167139      2204118          147  0.007193656    122.74873    2100.8455 
   60800    777.76067    63.696735      2204118          147  0.007193656    110.91906    1951.6944 
   60900    755.37493    62.822985      2204118          147  0.007193656    113.21512    1901.0087 
   61000     801.5456    66.786517      2204118          147  0.007193656    125.41677    2022.4854 
   61100    843.03269    70.760107      2204118          147  0.007193656    138.77063    2134.0294 
   61200    822.50847    67.836981      2204118          147  0.007193656    125.32274    2072.0055 
   61300    769.73122    61.926484      2204118          147  0.007193656    102.22191    1923.9934 
   61400    761.55027    59.813007      2204118          147  0.007193656    89.698731    1892.1079 
   61500    802.42085    65.296645      2204118          147  0.007193656    115.32216    2014.4623 
   61600    835.27116    70.718282      2204118          147  0.007193656    142.27888    2119.1679 
   61700    816.16797    68.978086      2204118          147  0.007193656    134.31018    2065.9865 
   61800    769.00426    67.404826      2204118          147  0.007193656    139.30232    1959.3533 
   61900    786.06023    65.101132      2204118          147  0.007193656    115.96976    1976.3882 
   62000    823.47627    66.037039      2204118          147  0.007193656    109.07924    2058.0526 
   62100    811.47705    68.375634      2204118          147  0.007193656    130.06565    2050.6397 
   62200    782.25352    69.178126      2204118          147  0.007193656    147.15834    1998.5672 
   62300      790.209     68.92098      2204118          147  0.007193656    144.23209    2014.4696 
   62400    825.92508    65.378884      2204118          147  0.007193656    106.64617    2061.4152 
   62500    797.65991    66.895813      2204118          147  0.007193656    128.78645    2016.6586 
   62600    775.87906    68.265499      2204118          147  0.007193656    146.77709    1983.0991 
   62700    804.97058    67.731579      2204118          147  0.007193656     130.9966    2036.1713 
   62800    808.46655    72.876275      2204118          147  0.007193656     167.3111      2080.76 
   62900    808.90778    73.515737      2204118          147  0.007193656    172.23165    2086.7248 
   63000    805.33766    68.336966      2204118          147  0.007193656    134.52053     2040.564 
   63100    776.99176    67.507634      2204118          147  0.007193656    138.16252     1977.118 
   63200    787.39624    68.126167      2204118          147  0.007193656    138.77899    2002.3594 
   63300    823.65719    68.566369      2204118          147  0.007193656    129.10282    2078.5043 
   63400    820.65295    67.508843      2204118          147  0.007193656    123.14415    2065.4353 
   63500     782.8959    64.871307      2204118          147  0.007193656    117.52219    1970.4514 
   63600    772.32624     65.00887      2204118          147  0.007193656    123.02635    1950.9397 
   63700    808.00191    66.392007      2204118          147  0.007193656    120.30574    2032.6549 
   63800    811.28684    71.778339      2204118          147  0.007193656    158.75941    2078.8832 
   63900    815.05486    67.945232      2204118          147  0.007193656    128.35931    2057.4011 
   64000     787.0353    66.073276      2204118          147  0.007193656    124.91617    1987.6423 
   64100    773.65924     67.71219      2204118          147  0.007193656    141.22676     1972.295 
   64200     806.2166    70.832193      2204118          147  0.007193656    152.57139    2060.6952 
   64300    838.23147    69.385317      2204118          147  0.007193656    130.31369    2114.2091 
   64400    797.11085     66.23591      2204118          147  0.007193656    121.67669    2008.2493 
   64500    758.48666     64.60445      2204118          147  0.007193656    123.14606    1918.3044 
   64600    787.51888    67.162369      2204118          147  0.007193656    131.69176    1995.5624 
   64700    844.91234    69.513994      2204118          147  0.007193656    128.56675    2128.2742 
   64800    822.05771    68.429133      2204118          147  0.007193656    128.49517    2074.1111 
   64900    765.86283    65.134541      2204118          147  0.007193656    125.33936    1937.9553 
   65000    779.10062    61.311044      2204118          147  0.007193656    92.426683    1936.3734 
   65100    800.84087     69.89355      2204118          147  0.007193656    148.59364    2043.9943 
   65200    835.93537    73.497637      2204118          147  0.007193656     162.8295    2141.2906 
   65300    821.57184     68.91576      2204118          147  0.007193656     133.4854    2077.9514 
   65400    763.18979    67.223647      2204118          147  0.007193656    141.42691    1947.7164 
   65500    768.99652    68.185301      2204118          147  0.007193656     145.1774    1965.2101 
   65600    829.25114    71.201535      2204118          147  0.007193656    145.80814    2108.4492 
   65700    847.69146    69.414442      2204118          147  0.007193656    126.47765    2132.7626 
   65800    772.86407    68.591404      2204118          147  0.007193656    148.06386    1977.2501 
   65900    761.67745    65.321228      2204118          147  0.007193656    128.42306    1931.1332 
   66000    815.06185     64.52744      2204118          147  0.007193656    103.86943    2032.9278 
   66100    825.58172    68.618836      2204118          147  0.007193656    131.44191    2085.3983 
   66200    797.73858     67.96264      2204118          147  0.007193656    136.87266     2024.931 
   66300     783.2175    64.887474      2204118          147  0.007193656    119.51696    1973.2073 
   66400    792.37088    64.967458      2204118          147  0.007193656    116.74169    1992.0959 
   66500    808.78407    67.374456      2204118          147  0.007193656    127.90526    2042.1056 
   66600    813.42353    67.545446      2204118          147  0.007193656    126.39859    2051.5795 
   66700    790.59831    68.982491      2204118          147  0.007193656    145.42328    2016.5823 
   66800    799.05936    65.738212      2204118          147  0.007193656    118.20594    2009.3902 
   66900    796.55688    67.031174      2204118          147  0.007193656    129.42812    2014.6896 
   67000    806.54167    65.792076      2204118          147  0.007193656    117.33603    2026.2291 
   67100    806.15513    63.886977      2204118          147  0.007193656    103.42256    2011.4008 
   67200    780.31293    67.042127      2204118          147  0.007193656    136.47076    1983.2867 
   67300    811.41635    64.129744      2204118          147  0.007193656    103.08326    2023.5136 
   67400     812.2681    65.384159      2204118          147  0.007193656    111.76975     2034.216 
   67500    792.19117    64.964264      2204118          147  0.007193656    114.08618    1989.0151 
   67600     785.7083    66.156253      2204118          147  0.007193656    123.64701    1983.2325 
   67700    799.02807    70.028415      2204118          147  0.007193656    146.30334    2037.4136 
   67800    823.90705    69.537931      2204118          147  0.007193656    134.33336    2084.3262 
   67900    813.22426    63.827742      2204118          147  0.007193656    97.259897    2021.9691 
   68000    770.97659    60.812473      2204118          147  0.007193656    91.271433    1915.9904 
   68100    769.79381    63.325188      2204118          147  0.007193656    111.05456    1932.9742 
   68200    823.84949    65.735523      2204118          147  0.007193656    109.13235     2058.989 
   68300    831.29352    67.825896      2204118          147  0.007193656     121.3567    2088.8316 
   68400    783.87895    67.165043      2204118          147  0.007193656    133.03964    1988.2955 
   68500     773.9606    64.088199      2204118          147  0.007193656    113.54855      1945.33 
   68600    804.76627    64.489686      2204118          147  0.007193656    105.36959    2010.0608 
   68700    818.23181    67.720642      2204118          147  0.007193656     123.6201     2060.181 
   68800     796.0209    70.121774      2204118          147  0.007193656    148.44886    2032.4418 
   68900    785.76598    69.969919      2204118          147  0.007193656    151.06417    2010.7862 
   69000    799.68265    69.523883      2204118          147  0.007193656    144.05753     2036.717 
   69100    810.17064    68.572074      2204118          147  0.007193656    132.96238    2050.4444 
   69200    787.95924    71.929407      2204118          147  0.007193656    167.13369    2032.0466 
   69300    814.92017    66.313559      2204118          147  0.007193656    116.23239    2044.9554 
   69400    798.79486    66.110095      2204118          147  0.007193656    122.18739    2012.7457 
   69500    782.99659    65.879324      2204118          147  0.007193656    127.02767    1980.1952 
   69600    804.83544    63.548585      2204118          147  0.007193656    102.69557    2007.5505 
   69700    815.17702    62.219944      2204118          147  0.007193656    89.653487    2018.9844 
   69800    789.36085    63.227826      2204118          147  0.007193656    107.06267    1975.2929 
   69900    793.11245    59.773499      2204118          147  0.007193656    78.395648     1955.505 
   70000    785.15381    64.966393      2204118          147  0.007193656    118.55398    1976.8271 
   70100    818.21067    66.079942      2204118          147  0.007193656    113.36997    2049.8809 
   70200    814.99992    67.596012      2204118          147  0.007193656     125.8398    2054.7516 
   70300    795.10132    63.931908      2204118          147  0.007193656    105.79748     1987.614 
   70400    783.73128     61.39739      2204118          147  0.007193656    91.371047    1946.2774 
   70500    790.87384    63.928029      2204118          147  0.007193656    107.71349    1979.5246 
   70600    808.91707    68.263829      2204118          147  0.007193656    133.26681    2047.7819 
   70700    822.46512    66.899259      2204118          147  0.007193656    117.52216    2064.1023 
   70800     791.5389    66.652364      2204118          147  0.007193656    127.24831    2000.6334 
   70900    783.60853    64.727239      2204118          147  0.007193656    117.14417      1971.76 
   71000    805.33804    63.761912      2204118          147  0.007193656    104.09235    2010.1368 
   71100    823.30855    60.932918      2204118          147  0.007193656    77.699961    2026.2763 
   71200    786.59899    62.364442      2204118          147  0.007193656    101.65143     1963.345 
   71300    765.06069    66.537659      2204118          147  0.007193656    139.60724    1950.3247 
   71400    816.19425    67.055006      2204118          147  0.007193656    123.77674    2055.5152 
   71500    838.36372    66.112432      2204118          147  0.007193656    107.97757    2092.1859 
   71600    778.07758    68.443753      2204118          147  0.007193656    146.69288    1988.2182 
   71700     765.6704    68.784909      2204118          147  0.007193656    153.22801    1965.3885 
   71800    819.61045    68.302385      2204118          147  0.007193656    131.39572    2071.2196 
   71900    839.18411    64.621798      2204118          147  0.007193656    97.856556    2084.0066 
   72000    779.12452    64.927897      2204118          147  0.007193656    121.61048    1965.6137 
   72100    773.00755    65.770849      2204118          147  0.007193656    129.65388    1959.1797 
   72200    819.36827    66.431814      2204118          147  0.007193656      116.651    2055.9016 
   72300    820.20502    69.962984      2204118          147  0.007193656    142.56349    2083.7945 
   72400    800.88473    65.334655      2204118          147  0.007193656    115.24182    2010.7463 
   72500    772.06182    61.952709      2204118          147  0.007193656    100.72864    1928.0161 
   72600    784.81606    64.856796      2204118          147  0.007193656    118.00484    1975.4786 
   72700    810.65757    69.736483      2204118          147  0.007193656    145.53137    2064.1659 
   72800    820.82643     65.80514      2204118          147  0.007193656    112.96451    2055.6663 
   72900    787.59667    65.548353      2204118          147  0.007193656    124.29163    1988.3464 
   73000    780.19723     63.82356      2204118          147  0.007193656    113.31318    1959.8553 
   73100    818.53116    64.049335      2204118          147  0.007193656    100.11126    2037.3807 
   73200    841.58872    70.093707      2204118          147  0.007193656    137.70506    2129.5463 
   73300    804.31348    63.916104      2204118          147  0.007193656    105.61958    2009.2391 
   73400     781.4235    60.996042      2204118          147  0.007193656    92.655788    1942.1002 
   73500    795.05266     63.42148      2204118          147  0.007193656    104.81159    1986.5129 
   73600    806.44045    70.140465      2204118          147  0.007193656     149.1613    2057.8149 
   73700    831.48419    68.907452      2204118          147  0.007193656    128.95423    2096.8804 
   73800    773.00313    69.295317      2204118          147  0.007193656    153.39525    1982.9106 
   73900    753.06794    68.689482      2204118          147  0.007193656    155.99531    1938.3288 
   74000    803.17828    68.234222      2204118          147  0.007193656    133.68719      2034.62 
   74100    795.18299    73.490157      2204118          147  0.007193656    176.89065    2058.9005 
   74200    817.99859    68.840593      2204118          147  0.007193656    134.05507     2070.064 
   74300    785.16284    67.883818      2204118          147  0.007193656    139.70578    1998.0003 
   74400    752.37731    65.100808      2204118          147  0.007193656    130.66503     1911.364 
   74500    799.22099     67.78345      2204118          147  0.007193656    133.97239    2025.5392 
   74600    825.73964    67.963701      2204118          147  0.007193656    125.96574    2080.2959 
   74700    795.40543    68.315879      2204118          147  0.007193656    140.38258    2022.9189 
   74800    794.83483    62.384044      2204118          147  0.007193656    96.960117    1978.1459 
   74900    780.37299    63.277588      2204118          147  0.007193656    109.65162    1956.6097 
   75000    812.71531    64.607305      2204118          147  0.007193656    107.61533      2031.12 
   75100    842.26388    65.594124      2204118          147  0.007193656    103.66358    2097.1027 
   75200    780.85652    67.635953      2204118          147  0.007193656    140.70327    1988.8057 
   75300    785.38811    63.626206      2204118          147  0.007193656    107.87176    1966.6994 
   75400    791.43334    67.251978      2204118          147  0.007193656     132.6281    2005.7634 
   75500    801.85691    69.661317      2204118          147  0.007193656     146.5645    2044.3699 
   75600    806.90588    69.456962      2204118          147  0.007193656     144.8838    2054.6389 
   75700    807.29333    66.463231      2204118          147  0.007193656    124.44171    2035.1138 
   75800    806.79609    63.293059      2204118          147  0.007193656    102.61701    2012.1123 
   75900    799.55518    62.063649      2204118          147  0.007193656    96.169532    1988.5273 
[...]
  381700    759.84681      65.8517      2204118          147  0.007193656    133.28296    1931.6604 
  381800    810.40776    68.328758      2204118          147  0.007193656    132.54246    2050.5857 
  381900    819.61098    67.120605      2204118          147  0.007193656    120.76103    2060.5861 
  382000    792.92331    64.200455      2204118          147  0.007193656    108.31979    1984.9815 
  382100    760.25251      67.7782      2204118          147  0.007193656    146.39523    1945.7329 
  382200    826.04533    70.471321      2204118          147  0.007193656    141.13493    2096.1886 
  382300    815.78058    75.426416      2204118          147  0.007193656      181.649    2112.4084 
  382400    806.39959    69.841291      2204118          147  0.007193656    142.91959    2051.4765 
  382500    786.91211    65.814046      2204118          147  0.007193656    122.15101    1984.5856 
  382600    791.85723    61.778308      2204118          147  0.007193656    92.841897    1966.9804 
  382700    812.61296    60.845401      2204118          147  0.007193656    79.323991    2002.5864 
  382800    824.46343    64.025772      2204118          147  0.007193656    96.808475    2048.1182 
  382900    783.25887     71.01863      2204118          147  0.007193656    162.18409    2015.9723 
  383000    800.87499    67.832152      2204118          147  0.007193656    131.59536    2027.0768 
  383100    825.03802    66.968292      2204118          147  0.007193656    117.65739     2070.327 
  383200    803.71491    64.837512      2204118          147  0.007193656    111.00275    2013.2056 
  383300    766.19353    62.569991      2204118          147  0.007193656    109.09516    1922.4938 
  383400    791.01841     63.32425      2204118          147  0.007193656    105.85727    1978.0105 
  383500    826.88354    65.179939      2204118          147  0.007193656    105.47854    2062.5161 
  383600    808.65371    67.241112      2204118          147  0.007193656     125.8334    2039.7252 
  383700    790.95917    69.450551      2204118          147  0.007193656    148.86163    2020.8747 
  383800    810.34444    66.526631      2204118          147  0.007193656    120.30142    2038.1948 
  383900    804.20353    66.981853      2204118          147  0.007193656     126.1838    2029.5431 
  384000    772.01844    63.233671      2204118          147  0.007193656    108.48398    1935.6688 
  384100     766.0277     65.40638      2204118          147  0.007193656    127.08016    1940.0863 
  384200    828.57162    64.016272      2204118          147  0.007193656    94.821312    2055.8541 
  384300    812.48955    64.737583      2204118          147  0.007193656    105.80974    2028.7801 
  384400    776.30755    68.606029      2204118          147  0.007193656     146.8191    1984.1552 
  384500    793.25966     70.33129      2204118          147  0.007193656    152.50178    2029.9595 
  384600    831.17201    70.926455      2204118          147  0.007193656    142.77329    2109.9606 
  384700    818.30496    72.883103      2204118          147  0.007193656    162.88501    2099.6191 
  384800    783.47176    65.098319      2204118          147  0.007193656    117.68717    1971.9793 
  384900    770.04945    64.823991      2204118          147  0.007193656    121.27838    1943.8031 
  385000    806.41691    68.308799      2204118          147  0.007193656    134.82752    2043.4254 
  385100    829.28118     68.54646      2204118          147  0.007193656    129.38429    2092.0965 
  385200    800.03073    64.941599      2204118          147  0.007193656    113.69407    2007.1773 
  385300    767.40939    65.895648      2204118          147  0.007193656    132.90468     1949.181 
  385400    794.46383     64.86038      2204118          147  0.007193656    114.60646    1994.9142 
  385500    805.35029    66.127773      2204118          147  0.007193656    120.27441    2026.3478 
  385600    811.07383    63.949166      2204118          147  0.007193656    102.12917    2021.7489 
  385700    771.05808    64.830703      2204118          147  0.007193656     122.9316    1947.8435 
  385800    743.20045    65.767963      2204118          147  0.007193656    138.33684    1897.3163 
  385900    809.54625    69.481057      2204118          147  0.007193656    141.33225    2057.3365 
  386000    817.22106    69.679935      2204118          147  0.007193656    139.95366    2074.1224 
  386100    787.95759    68.343912      2204118          147  0.007193656    141.10817    2006.0172 
  386200    784.31054    65.231158      2204118          147  0.007193656    120.18557    1976.4629 
  386300    802.39701    67.452559      2204118          147  0.007193656    130.75863    2029.8423 
  386400    845.77075    70.143739      2204118          147  0.007193656    135.68866    2137.4277 
  386500    819.88702    66.001527      2204118          147  0.007193656    115.10854     2055.587 
  386600    787.58838    62.649213      2204118          147  0.007193656    102.56594    1966.6011 
  386700    791.54721      63.5253      2204118          147  0.007193656    107.61005    1981.0148 
  386800    805.05354    67.446408      2204118          147  0.007193656    130.69373    2036.0648 
  386900     830.5981     69.49065      2204118          147  0.007193656    135.30887    2101.1379 
  387000    815.45445    67.213073      2204118          147  0.007193656    122.88693    2052.8745 
  387100    746.14672     70.56525      2204118          147  0.007193656    173.62014    1939.5727 
  387200    798.85423    67.649544      2204118          147  0.007193656    133.12421     2023.823 
  387300    824.59354    66.504054      2204118          147  0.007193656    116.38477    2068.0024 
  387400    800.85143    64.805215      2204118          147  0.007193656    113.90226     2009.328 
  387500    789.67893    58.727899      2204118          147  0.007193656    73.026412    1942.0094 
  387600    769.64636    63.278519      2204118          147  0.007193656    113.74985    1935.3205 
  387700    850.61112    68.076822      2204118          147  0.007193656    118.50308    2131.6981 
  387800     822.9105    67.538174      2204118          147  0.007193656    123.33141    2070.9657 
  387900    773.88069    67.320534      2204118          147  0.007193656    139.08601    1970.6783 
  388000    790.67311    66.999018      2204118          147  0.007193656    131.73726    2003.0733 
  388100    836.20718    64.485883      2204118          147  0.007193656    97.658985    2076.7634 
  388200    793.43058    64.935332      2204118          147  0.007193656    116.56006    1994.4223 
  388300    757.00716     65.42534      2204118          147  0.007193656    132.31573    1923.9724 
  388400    781.65501    66.786173      2204118          147  0.007193656    133.23241    1983.2247 
  388500    812.02819    66.220925      2204118          147  0.007193656    118.39893    2040.2773 
  388600    808.30834    67.816224      2204118          147  0.007193656    132.86195    2045.9364 
  388700    782.26912    66.251269      2204118          147  0.007193656    130.96189    1982.4076 
  388800    764.24401    63.584459      2204118          147  0.007193656    119.00554    1927.7901 
  388900    814.11919    64.679161      2204118          147  0.007193656     109.4325    2036.2598 
  389000    826.52854    70.424309      2204118          147  0.007193656    147.63931    2103.8366 
  389100    810.27023    66.457597      2204118          147  0.007193656    123.99721    2041.7149 
  389200    792.97001    62.502048      2204118          147  0.007193656    102.02835    1978.8006 
  389300    798.09213    60.630374      2204118          147  0.007193656    86.863312    1975.7584 
  389400    796.04603    61.551105      2204118          147  0.007193656    93.124588     1977.177 
  389500     789.9827    66.320938      2204118          147  0.007193656    128.22944    1997.9314 
  389600    840.49641      71.5699      2204118          147  0.007193656     147.5783    2136.8343 
  389700    850.75231    68.262194      2204118          147  0.007193656    118.24268    2131.7719 
  389800    791.29677    70.621884      2204118          147  0.007193656    157.62329    2030.4354 
  389900    795.66788    68.428378      2204118          147  0.007193656    139.64071    2022.7981 
  390000    798.34561    69.203184      2204118          147  0.007193656    145.07987    2034.5749 
  390100    810.53392    69.722629      2204118          147  0.007193656    145.64611    2063.9879 
  390200    831.91822    67.179454      2204118          147  0.007193656    119.80849    2088.7619 
  390300    778.19872    66.333226      2204118          147  0.007193656    132.71257    1974.5246 
  390400     775.3346    64.567244      2204118          147  0.007193656    119.55062     1954.584 
  390500    813.03814    65.943669      2204118          147  0.007193656    115.14338    2039.4121 
  390600    809.67935     70.90256      2204118          147  0.007193656    151.39158    2067.7109 
  390700    795.02609    72.925472      2204118          147  0.007193656    170.87283    2052.5113 
  390800    806.41247    68.091721      2204118          147  0.007193656    130.79171     2039.379 
  390900    783.91015    66.014259      2204118          147  0.007193656    125.06006    1980.3897 
  391000    785.25069    64.549459      2204118          147  0.007193656    114.73581    1973.2382 
  391100    807.06635    66.650482      2204118          147  0.007193656    121.78995    2031.9249 
  391200    821.03618    70.755811      2204118          147  0.007193656    147.19734    2090.3955 
  391300     816.1767     68.48426      2204118          147  0.007193656    132.73486    2064.4318 
  391400    769.27624    63.798743      2204118          147  0.007193656    116.68182    1937.3765 
  391500    778.17816    62.771735      2204118          147  0.007193656    106.83897    1948.6024 
  391600    796.06975     67.15541      2204118          147  0.007193656    134.32062    2018.4292 
  391700    824.24549     62.15499      2204118          147  0.007193656    87.175893    2037.9698 
  391800    791.52947    64.573689      2204118          147  0.007193656    117.82204    1991.1849 
  391900    793.04367    62.958964      2204118          147  0.007193656    103.44186    1980.3884 
  392000    805.46271    67.526484      2204118          147  0.007193656    130.89742    2037.2369 
  392100    852.46371    73.388069      2204118          147  0.007193656     154.8613     2172.441 
  392200    805.93368    74.589784      2204118          147  0.007193656    177.87196    2085.3261 
  392300    789.15736    72.178156      2204118          147  0.007193656    164.95846     2032.707 
  392400    792.26231    72.805837      2204118          147  0.007193656    170.87006    2045.9673 
  392500    824.72852    68.066973      2204118          147  0.007193656     125.7076    2077.6447 
  392600     799.2109     63.88245      2204118          147  0.007193656     105.6102    1997.1531 
  392700    753.09798    62.979579      2204118          147  0.007193656    116.17779    1898.5824 
  392800    792.10994     64.87312      2204118          147  0.007193656    116.26385    1991.0005 
  392900    821.07807    64.968508      2204118          147  0.007193656    106.01768     2049.315 
  393000    791.16296     68.45271      2204118          147  0.007193656    141.63511    2014.1305 
  393100    787.94225    68.271967      2204118          147  0.007193656    141.62892    2006.5016 
  393200    841.91689    66.738539      2204118          147  0.007193656    111.80066    2104.4186 
  393300    827.42917    69.450807      2204118          147  0.007193656    138.99833    2097.3272 
  393400    781.99503    64.357635      2204118          147  0.007193656    118.19272    1968.9898 
  393500    783.41268    64.251372      2204118          147  0.007193656    117.53901    1971.6913 
  393600    803.71069    66.978546      2204118          147  0.007193656    130.73149    2032.9244 
  393700    821.27184    65.998656      2204118          147  0.007193656    116.13332    2059.8893 
  393800    770.67622    65.198449      2204118          147  0.007193656    127.79609    1951.8042 
  393900    737.94417    65.110587      2204118          147  0.007193656    138.56861    1885.1077 
  394000    791.01023    65.679256      2204118          147  0.007193656    122.91792    1995.0518 
  394100     791.2743    73.069264      2204118          147  0.007193656    177.17163    2049.9305 
  394200    823.54406    71.507452      2204118          147  0.007193656    152.19829     2101.332 
  394300    808.86522    72.075337      2204118          147  0.007193656    162.51969    2076.9121 
  394400    769.51208    65.487813      2204118          147  0.007193656    128.42886    1949.6817 
  394500    769.13977    64.326471      2204118          147  0.007193656     119.7509    1940.1226 
  394600    790.92092    72.095686      2204118          147  0.007193656    168.40788    2040.3304 
  394700     821.1085    67.647063      2204118          147  0.007193656    123.43427    2066.8036 
  394800    802.03744    65.089542      2204118          147  0.007193656    112.27248    2010.5051 
  394900    773.85023    65.480102      2204118          147  0.007193656     126.4167    1957.9369 
  395000    802.85332    65.873157      2204118          147  0.007193656    118.09667    2018.2603 
  395100    837.70535    72.811284      2204118          147  0.007193656    156.05155    2138.7017 
  395200    822.69346    70.190585      2204118          147  0.007193656    140.57798    2087.6986 
  395300     800.5549    66.760612      2204118          147  0.007193656    122.52755    2017.2514 
  395400    785.00065    70.439257      2204118          147  0.007193656    156.34404    2014.2547 
  395500    815.88619    68.161945      2204118          147  0.007193656    129.26792    2060.2773 
  395600    813.35001    66.380532      2204118          147  0.007193656    117.91455    2042.9214 
  395700    761.71486    64.224425      2204118          147  0.007193656    121.64857    1924.4473 
  395800    775.57723    64.859959      2204118          147  0.007193656    122.42354    1958.0312 
  395900    816.69608     66.55713      2204118          147  0.007193656    120.14064    2053.0669 
  396000     807.0873    67.017603      2204118          147  0.007193656     126.9324    2037.1169 
  396100    783.32432    68.363592      2204118          147  0.007193656    146.76031    2000.7035 
  396200    803.82726     64.17753      2204118          147  0.007193656    107.72708    2010.1958 
  396300    820.97401    66.383362      2204118          147  0.007193656    118.62326    2061.6743 
  396400    831.63752    64.516071      2204118          147  0.007193656    101.31274    2069.6018 
  396500    776.12498    63.161307      2204118          147  0.007193656    111.20889    1948.1129 
  396600    766.33859    66.540612      2204118          147  0.007193656    138.73867    1952.4806 
  396700    803.74185    70.267114      2204118          147  0.007193656    151.90587    2054.1725 
  396800    821.48025    67.198812      2204118          147  0.007193656    122.66918    2066.9184 
  396900    796.94182    65.858006      2204118          147  0.007193656    122.41309    2008.5857 
  397000    785.75206    64.654521      2204118          147  0.007193656    117.57186    1977.2609 
  397100    805.87515    67.130991      2204118          147  0.007193656    128.65949    2035.9751 
  397200    856.44359    71.656381      2204118          147  0.007193656    142.70797    2169.7071 
  397300    815.92454    70.555429      2204118          147  0.007193656    148.74739    2079.8475 
  397400     799.1034    65.591935      2204118          147  0.007193656    119.08638    2010.3749 
  397500    794.90204    63.584389      2204118          147  0.007193656    107.36915     1988.714 
  397600    798.17096    62.585423      2204118          147  0.007193656    99.392226    1988.4739 
  397700    810.65268    62.937586      2204118          147  0.007193656    97.464834    2016.0878 
  397800    822.21691    63.276589      2204118          147  0.007193656    94.274302     2040.267 
  397900    784.67597    66.311685      2204118          147  0.007193656    128.64045    1985.7826 
  398000    758.68452    71.678964      2204118          147  0.007193656    176.65801    1972.2846 
  398100     834.1829    69.192401      2204118          147  0.007193656    129.27358     2103.587 
  398200    824.40497    68.145348      2204118          147  0.007193656    125.55033    2076.7217 
  398300     791.8168    67.040366      2204118          147  0.007193656    130.42991    2004.4728 
  398400    797.26949    63.951711      2204118          147  0.007193656    106.46183    1993.4099 
  398500     799.0565    66.043723      2204118          147  0.007193656    122.44458    2013.6221 
  398600    845.49468    67.618844      2204118          147  0.007193656    116.59363    2117.6793 
  398700    843.62511    71.146732      2204118          147  0.007193656    142.45501    2139.1159 
  398800     787.7369     68.05588      2204118          147  0.007193656    139.25191    2003.6386 
  398900    784.30577    66.577393      2204118          147  0.007193656      128.661     1984.927 
  399000    799.55542    70.242608      2204118          147  0.007193656    150.87103    2043.2294 
  399100     841.8821    66.324647      2204118          147  0.007193656    106.97939     2099.515 
  399200    772.70564    65.014022      2204118          147  0.007193656    123.00675     1951.818 
  399300    769.96239    63.197279      2204118          147  0.007193656    109.76705    1932.0857 
  399400    802.55936    65.164938      2204118          147  0.007193656    112.12224    2011.5902 
  399500    821.06847    66.725868      2204118          147  0.007193656    116.41825    2059.6929 
  399600    800.92972    65.984195      2204118          147  0.007193656    117.81339    2013.4244 
  399700    754.95018    64.119547      2204118          147  0.007193656    119.99294    1906.7812 
  399800    782.18672    66.005552      2204118          147  0.007193656    124.43432    1975.6851 
  399900    821.36616    69.091938      2204118          147  0.007193656     134.6208       2078.6 
  400000    809.19227    66.042851      2204118          147  0.007193656    117.30715    2032.4736 
  400100    781.65917    64.189852      2204118          147  0.007193656    114.61794    1964.6201 
Loop time of 55.6659 on 1 procs for 400000 steps with 795 atoms

Performance: 155.212 ns/day, 0.155 hours/ns, 7185.722 timesteps/s
95.9% CPU use with 1 MPI tasks x no OpenMP threads

MPI task timing breakdown:
Section |  min time  |  avg time  |  max time  |%varavg| %total
---------------------------------------------------------------
Pair    | 25.64      | 25.64      | 25.64      |   0.0 | 46.06
Neigh   | 8.9005     | 8.9005     | 8.9005     |   0.0 | 15.99
Comm    | 2.1283     | 2.1283     | 2.1283     |   0.0 |  3.82
Output  | 3.7286     | 3.7286     | 3.7286     |   0.0 |  6.70
Modify  | 13.768     | 13.768     | 13.768     |   0.0 | 24.73
Other   |            | 1.5        |            |       |  2.70

Nlocal:            795 ave         795 max         795 min
Histogram: 1 0 0 0 0 0 0 0 0 0
Nghost:            145 ave         145 max         145 min
Histogram: 1 0 0 0 0 0 0 0 0 0
Neighs:           1642 ave        1642 max        1642 min
Histogram: 1 0 0 0 0 0 0 0 0 0

Total # of neighbors = 1642
Ave neighs/atom = 2.0654088
Neighbor list builds = 13844
Dangerous builds = 17

write_data graphene_single_layer_LJ_795C_after_temp_800K.data
System init for write_data ...
  generated 0 of 0 mixed pair_coeff terms from geometric mixing rule
Total wall time: 0:00:56
