# System definition
read_data graphene_single_layer_x-45_y-45_795_C.data
Reading data file ...
  orthogonal box = (-51 -51 -51) to (96 96 51)
  1 by 1 by 1 MPI processor grid
  reading atoms ...
  795 atoms
  read_data CPU = 0.013 seconds
pair_style lj/cut 6
pair_coeff      1 1 0.066047 3.4

# Virtual force wall to keep the cylinder shape
#region myCylinder cylinder z 0. 0. 20.3 -22.079997 505.920003 units box
#fix wall all wall/region myCylinder lj93 1.0 1.0 2.5

# Minimization
timestep 0.25
thermo 100
thermo_style custom step temp press vol lx density pe etotal
dump 2 all custom 1000 graphene_single_layer_LJ_795C_after_temp_600K.lammpstrj id type x y z
min_style cg
minimize 1.0e-6 1.0e-6 100 1000
WARNING: Using 'neigh_modify every 1 delay 0 check yes' setting during minimization (../min.cpp:187)
  generated 0 of 0 mixed pair_coeff terms from geometric mixing rule
Neighbor list info ...
  update every 1 steps, delay 0 steps, check yes
  max neighbors/atom: 10000, page size: 100000
  master list distance cutoff = 6.4
  ghost atom cutoff = 6.4
  binsize = 3.2, bins = 46 46 32
  1 neighbor lists, perpetual/occasional/extra = 1 0 0
  (1) pair lj/cut, perpetual
      attributes: half, newton on
      pair build: half/bin/atomonly/newton
      stencil: half/bin/3d
      bin: standard
Per MPI rank memory allocation (min/avg/max) = 5.96 | 5.96 | 5.96 Mbytes
Step Temp Press Volume Lx Density PotEng TotEng 
       0            0    1335313.5      2204118          147  0.007193656     10699602     10699602 
     100            0     61841.43      2204118          147  0.007193656    488621.59    488621.59 
Loop time of 0.0788216 on 1 procs for 100 steps with 795 atoms

100.0% CPU use with 1 MPI tasks x no OpenMP threads

Minimization stats:
  Stopping criterion = max iterations
  Energy initial, next-to-last, final = 
      10699602.3573369   495470.853828546   488621.590421788
  Force two-norm initial, final = 694694.42 29375.63
  Force max component initial, final = 79169.705 9280.0147
  Final line search alpha, max atom move = 3.8811533e-05 0.36017159
  Iterations, force evaluations = 100 117

MPI task timing breakdown:
Section |  min time  |  avg time  |  max time  |%varavg| %total
---------------------------------------------------------------
Pair    | 0.052874   | 0.052874   | 0.052874   |   0.0 | 67.08
Neigh   | 0.021304   | 0.021304   | 0.021304   |   0.0 | 27.03
Comm    | 0.0005227  | 0.0005227  | 0.0005227  |   0.0 |  0.66
Output  | 7.32e-05   | 7.32e-05   | 7.32e-05   |   0.0 |  0.09
Modify  | 0          | 0          | 0          |   0.0 |  0.00
Other   |            | 0.004048   |            |       |  5.14

Nlocal:            795 ave         795 max         795 min
Histogram: 1 0 0 0 0 0 0 0 0 0
Nghost:              0 ave           0 max           0 min
Histogram: 1 0 0 0 0 0 0 0 0 0
Neighs:          13073 ave       13073 max       13073 min
Histogram: 1 0 0 0 0 0 0 0 0 0

Total # of neighbors = 13073
Ave neighs/atom = 16.444025
Neighbor list builds = 35
Dangerous builds = 0
#timestep 0.25
fix 1 all nvt temp 600.0 600.0 $(100.0*dt)
fix 1 all nvt temp 600.0 600.0 25
run 400000
  generated 0 of 0 mixed pair_coeff terms from geometric mixing rule
Per MPI rank memory allocation (min/avg/max) = 4.835 | 4.835 | 4.835 Mbytes
Step Temp Press Volume Lx Density PotEng TotEng 
     100            0     61841.43      2204118          147  0.007193656    488621.59    488621.59 
     200    22286.003    22307.573      2204118          147  0.007193656    165447.73    218193.42 
     300    7453.9277    10980.956      2204118          147  0.007193656    81706.406    99348.087 
     400    3946.9932    7061.4241      2204118          147  0.007193656    52272.452     61614.05 
     500    2551.7183     5092.289      2204118          147  0.007193656    37419.385    43458.698 
     600    1837.7649    3914.3418      2204118          147  0.007193656    28528.426     32877.98 
     700    1423.1275    3131.5204      2204118          147  0.007193656    22623.152    25991.358 
     800    1159.1006    2574.1958      2204118          147  0.007193656    18425.128    21168.444 
     900    981.19258    2158.1537      2204118          147  0.007193656    15297.342    17619.593 
    1000    857.53056    1835.9983      2204118          147  0.007193656      12880.2    14909.772 
    1100    770.03128    1579.3239      2204118          147  0.007193656    10958.274    12780.755 
    1200    707.69339    1370.2749      2204118          147  0.007193656    9396.1393    11071.082 
    1300    664.36061    1196.7951      2204118          147  0.007193656    8102.2012    9674.5854 
    1400    635.49695    1050.4224      2204118          147  0.007193656    7012.5114    8516.5822 
    1500     616.8879     925.3335      2204118          147  0.007193656    6083.3686    7543.3962 
    1600    605.32687    817.48203      2204118          147  0.007193656    5284.6015    6717.2669 
    1700    598.32598    724.01165      2204118          147  0.007193656    4594.9267    6011.0226 
    1800    594.87923    642.56505      2204118          147  0.007193656    3996.3963    5404.3346 
    1900    593.91514    571.10798      2204118          147  0.007193656    3473.7034    4879.3599 
    2000    593.50908    508.12693      2204118          147  0.007193656    3015.6863    4420.3818 
    2100    592.76921       452.59      2204118          147  0.007193656     2614.719    4017.6633 
    2200    592.42682    403.64813      2204118          147  0.007193656    2263.7809    3665.9149 
    2300    593.10354     360.5149      2204118          147  0.007193656    1956.5553     3360.291 
    2400    594.19346    322.42597      2204118          147  0.007193656    1687.3567    3093.6719 
    2500    594.80465    288.70453      2204118          147  0.007193656    1451.3238    2859.0855 
    2600    594.88143    258.83271      2204118          147  0.007193656    1244.3947    2652.3382 
    2700    595.15884    232.41921      2204118          147  0.007193656    1063.3423    2471.9424 
    2800    595.99336    209.05703      2204118          147  0.007193656    904.79096    2315.3661 
    2900    596.78494     188.3326      2204118          147  0.007193656    765.60962    2178.0582 
    3000    596.97811    169.91028      2204118          147  0.007193656    643.42203    2056.3278 
    3100    596.96049    153.55186      2204118          147  0.007193656    536.38536    1949.2495 
    3200    597.36448    139.01947      2204118          147  0.007193656    442.24795    1856.0682 
    3300    598.03835    126.11029      2204118          147  0.007193656    359.72655    1775.1417 
    3400     598.3347    114.60417      2204118          147  0.007193656    287.35776    1703.4743 
    3500    598.19357    104.35387      2204118          147  0.007193656    224.17293    1639.9554 
    3600    598.23262    95.242548      2204118          147  0.007193656    169.00572    1584.8807 
    3700    598.70217    87.156311      2204118          147  0.007193656    120.89707    1537.8833 
    3800    599.08065    79.977632      2204118          147  0.007193656    79.252157    1497.1342 
    3900    598.95112    73.594168      2204118          147  0.007193656    43.258947    1460.8344 
    4000    598.73906     67.97546      2204118          147  0.007193656     12.74987    1429.8234 
    4100      599.101    63.017635      2204118          147  0.007193656   -13.452348    1404.4778 
    4200    599.68745    58.613185      2204118          147  0.007193656   -35.909449    1383.4087 
    4300    599.58482    54.688577      2204118          147  0.007193656   -54.888041    1364.1872 
    4400    599.13652    51.215522      2204118          147  0.007193656    -70.57634    1347.4379 
    4500    599.29935    48.157011      2204118          147  0.007193656   -83.649212    1334.7504 
    4600    599.86981    45.439031      2204118          147  0.007193656   -94.888395    1324.8614 
    4700    599.92037    43.005921      2204118          147  0.007193656   -104.33232    1315.5371 
    4800    599.45875     40.80759      2204118          147  0.007193656   -112.46864    1306.3083 
    4900    599.37346    38.857195      2204118          147  0.007193656    -119.3596    1299.2154 
    5000    599.88049    37.141103      2204118          147  0.007193656   -125.10189    1294.6732 
    5100    600.16201    35.612255      2204118          147  0.007193656   -129.66302    1290.7783 
    5200    599.77934    34.227493      2204118          147  0.007193656   -133.27614    1286.2595 
    5300    599.42755    33.011164      2204118          147  0.007193656   -135.91657    1282.7865 
    5400    599.75452    31.966571      2204118          147  0.007193656   -137.83093     1281.646 
    5500    600.25892    31.053692      2204118          147  0.007193656   -139.06608    1281.6046 
    5600    600.12577    30.212353      2204118          147  0.007193656   -139.80818    1280.5474 
    5700    599.60358    29.450126      2204118          147  0.007193656   -140.03885    1279.0808 
    5800    599.59181    28.802467      2204118          147  0.007193656    -139.8257    1279.2661 
    5900     600.1283    28.261967      2204118          147  0.007193656   -139.24223    1281.1193 
    6000    600.32618      27.7776      2204118          147  0.007193656   -138.33055    1282.4993 
    6100    599.86964    27.327808      2204118          147  0.007193656   -137.11072    1282.6387 
    6200    599.54719    26.941927      2204118          147  0.007193656   -135.65865    1283.3276 
    6300    599.91872    26.640839      2204118          147  0.007193656   -134.00799    1285.8575 
    6400    600.37083    26.386971      2204118          147  0.007193656   -132.21873    1288.7168 
    6500    600.15045    26.143071      2204118          147  0.007193656   -130.24609    1290.1679 
    6600    599.63709    25.918288      2204118          147  0.007193656   -128.20628    1290.9927 
    6700    599.70471    25.755466      2204118          147  0.007193656   -126.06046    1293.2986 
    6800    600.24694    25.645053      2204118          147  0.007193656   -123.84318    1296.7992 
    6900     600.3542     25.53953      2204118          147  0.007193656   -121.56993    1299.3263 
    7000    599.84983    25.426504      2204118          147  0.007193656   -119.27447     1300.428 
    7100    599.58997    25.347514      2204118          147  0.007193656   -116.93682    1302.1506 
    7200    600.01822    25.320458      2204118          147  0.007193656   -114.59351    1305.5075 
    7300    600.41643    25.307499      2204118          147  0.007193656   -112.26275    1308.7807 
    7400    600.11436    25.275438      2204118          147  0.007193656   -109.92879    1310.3998 
    7500    599.62422    25.247243      2204118          147  0.007193656   -107.60881    1311.5597 
    7600    599.77586    25.262656      2204118          147  0.007193656   -105.30021    1314.2272 
    7700     600.3169     25.30685      2204118          147  0.007193656   -103.02557    1317.7824 
    7800    600.33539    25.334345      2204118          147  0.007193656   -100.78112    1320.0706 
    7900    599.80049    25.341432      2204118          147  0.007193656   -98.588975    1320.9967 
    8000    599.61652    25.373371      2204118          147  0.007193656   -96.419404    1322.7309 
    8100    600.09709    25.445272      2204118          147  0.007193656   -94.261117    1326.0266 
    8200    600.43315    25.513262      2204118          147  0.007193656   -92.167976    1328.9151 
    8300    600.05775    25.549375      2204118          147  0.007193656   -90.128683    1330.0659 
    8400     599.6053    25.583308      2204118          147  0.007193656   -88.155182    1330.9686 
    8500    599.84062     25.65239      2204118          147  0.007193656   -86.240937    1333.4398 
    8600    600.36791    25.736776      2204118          147  0.007193656   -84.385685     1336.543 
    8700    600.29645    25.792496      2204118          147  0.007193656   -82.589744    1338.1698 
    8800     599.7453    25.825366      2204118          147  0.007193656   -80.852084     1338.603 
    8900    599.64504    25.883032      2204118          147  0.007193656   -79.139458    1340.0783 
    9000    600.16512    25.972954      2204118          147  0.007193656   -77.465907    1342.9828 
    9100     600.4278    26.048038      2204118          147  0.007193656   -75.898192    1345.1722 
    9200     599.9871    26.089099      2204118          147  0.007193656   -74.391069    1345.6363 
    9300    599.58676    26.136642      2204118          147  0.007193656   -72.876933    1346.2029 
    9400    599.90305    26.217633      2204118          147  0.007193656    -71.45757    1348.3709 
    9500    600.40272    26.309426      2204118          147  0.007193656   -70.071869    1350.9392 
    9600    600.24163    26.368874      2204118          147  0.007193656   -68.746121    1351.8837 
    9700    599.69038    26.409716      2204118          147  0.007193656   -67.470408    1351.8547 
    9800     599.6793    26.477541      2204118          147  0.007193656   -66.243815    1353.0551 
    9900    600.22817    26.575244      2204118          147  0.007193656   -65.032506    1355.5654 
   10000    600.40994    26.653816      2204118          147  0.007193656   -63.893456    1357.1347 
   10100    599.91654    26.701086      2204118          147  0.007193656   -62.776493    1357.0839 
   10200    599.58121    26.759356      2204118          147  0.007193656    -61.65733    1357.4094 
   10300    599.96939    26.852958      2204118          147  0.007193656   -60.592048    1359.3934 
   10400    600.42634    26.949753      2204118          147  0.007193656   -59.579504    1361.4875 
   10500    600.17938    27.012766      2204118          147  0.007193656   -58.601805    1361.8806 
   10600    599.64922    27.060184      2204118          147  0.007193656   -57.697345    1361.5304 
   10700     599.7307    27.133912      2204118          147  0.007193656   -56.898477    1362.5221 
   10800    600.29647    27.234038      2204118          147  0.007193656   -56.123487    1364.6361 
   10900    600.35486     27.33006      2204118          147  0.007193656   -55.300536    1365.5972 
   11000    599.24453     27.59496      2204118          147  0.007193656   -53.073945    1365.1959 
   11100    598.51334      28.2919      2204118          147  0.007193656   -47.814757    1368.7246 
   11200    602.59921    28.268116      2204118          147  0.007193656   -49.948122    1376.2615 
   11300    599.89841    29.001569      2204118          147  0.007193656   -44.358751    1375.4587 
   11400    596.52454    30.138837      2204118          147  0.007193656   -35.892549    1375.9398 
   11500     597.5836    32.057519      2204118          147  0.007193656   -23.090557    1391.2483 
   11600    607.49049    32.338767      2204118          147  0.007193656   -25.917085     1411.869 
   11700    601.36668    33.254372      2204118          147  0.007193656   -18.137219    1405.1553 
   11800    594.48247    33.551214      2204118          147  0.007193656   -15.141464    1391.8578 
   11900    590.05479    36.640038      2204118          147  0.007193656    8.0953558    1404.6153 
   12000    612.09419    36.908642      2204118          147  0.007193656   0.33358016    1449.0156 
   12100    607.62374    38.244378      2204118          147  0.007193656    10.038784    1448.1403 
   12200     589.0605    39.194102      2204118          147  0.007193656    21.704771    1415.8715 
   12300    587.86359    41.711399      2204118          147  0.007193656    39.407688    1430.7416 
   12400    616.24191    41.734717      2204118          147  0.007193656    27.833375     1486.332 
   12500    612.62415    42.255701      2204118          147  0.007193656    32.166404    1482.1027 
   12600    585.81209    42.555497      2204118          147  0.007193656    43.551578    1430.0301 
   12700    588.84653    41.377069      2204118          147  0.007193656    32.843381    1426.5037 
   12800    603.89438    43.788558      2204118          147  0.007193656    44.521104    1473.7961 
   12900    618.72271    44.408165      2204118          147  0.007193656    42.789332    1507.1595 
   13000    601.76658    43.349774      2204118          147  0.007193656    39.873201    1464.1122 
   13100    573.97734    44.944609      2204118          147  0.007193656    61.352337    1419.8208 
   13200    601.45798    44.112246      2204118          147  0.007193656    44.962905    1468.4715 
   13300    618.88733    46.142879      2204118          147  0.007193656    53.975326    1518.7351 
   13400    609.97774    44.376292      2204118          147  0.007193656     43.68527    1487.3581 
   13500    584.29004    42.196712      2204118          147  0.007193656    35.887171    1418.7633 
   13600    577.20554    44.064101      2204118          147  0.007193656      50.6302     1416.739 
   13700    610.31092    47.463198      2204118          147  0.007193656    62.272432    1506.7339 
   13800    634.03505    47.613681      2204118          147  0.007193656    53.786198     1554.397 
   13900    590.29043    47.789794      2204118          147  0.007193656     70.33877    1467.4164 
   14000    571.56988    46.108007      2204118          147  0.007193656    64.442099    1417.2126 
   14100    601.74122      46.1885      2204118          147  0.007193656    54.942846    1479.1218 
   14200    627.72841    46.935623      2204118          147  0.007193656    51.957437    1537.6419 
   14300    608.95342    44.549616      2204118          147  0.007193656    41.214405    1482.4629 
   14400    574.00897    42.406134      2204118          147  0.007193656    37.016949    1395.5603 
   14500    571.24208    46.377268      2204118          147  0.007193656    66.227094    1418.2218 
   14600    627.67922     48.57913      2204118          147  0.007193656    60.020763    1545.5888 
   14700    632.88077    50.389127      2204118          147  0.007193656     70.46947    1568.3484 
   14800    588.74774    47.085667      2204118          147  0.007193656    60.946291    1454.3728 
   14900    560.43522    46.822449      2204118          147  0.007193656    68.656687    1395.0741 
   15000    597.88261    49.263654      2204118          147  0.007193656    72.780207    1487.8268 
   15100    644.77387    49.928792      2204118          147  0.007193656    60.664948     1586.692 
   15200    612.40004    47.299998      2204118          147  0.007193656    53.250673    1502.6565 
   15300    556.59384    45.592661      2204118          147  0.007193656    61.083032    1378.4088 
   15400    579.28924    44.808816      2204118          147  0.007193656    47.224674    1418.2651 
   15500    636.04591     46.87407      2204118          147  0.007193656    42.630981     1548.001 
   15600    628.75439    46.901892      2204118          147  0.007193656    45.270452    1533.3832 
   15700    572.27195    44.798095      2204118          147  0.007193656    49.630972    1404.0631 
   15800     566.8585     43.72316      2204118          147  0.007193656    43.217093    1384.8369 
   15900     610.3834     47.45653      2204118          147  0.007193656    54.485809    1499.1188 
   16000    635.13852    51.171762      2204118          147  0.007193656    71.946459    1575.1689 
   16100    606.48723    49.190484      2204118          147  0.007193656    66.841976    1502.2536 
   16200    570.47028    46.935888      2204118          147  0.007193656    63.391106    1413.5592 
   16300    576.87904    49.208681      2204118          147  0.007193656    78.926841    1444.2629 
   16400     624.0704    50.157898      2204118          147  0.007193656    67.404213    1544.4311 
   16500    615.82579    53.205551      2204118          147  0.007193656    92.003094    1549.5169 
   16600    591.51552    51.712428      2204118          147  0.007193656    87.915852     1487.893 
   16700     579.9573    53.903844      2204118          147  0.007193656    107.60136    1480.2229 
   16800    604.55455    57.329131      2204118          147  0.007193656    123.57783    1554.4153 
   16900    629.89196    59.516492      2204118          147  0.007193656    129.75048    1620.5556 
   17000    602.07684    58.618524      2204118          147  0.007193656    133.51276    1558.4861 
   17100    561.11992    58.632025      2204118          147  0.007193656     147.8358    1475.8738 
   17200    586.18811    59.331498      2204118          147  0.007193656    143.50701    1530.8754 
   17300    626.57634    61.386751      2204118          147  0.007193656    143.31896    1626.2768 
   17400    619.38086    60.820521      2204118          147  0.007193656    140.49492    1606.4227 
   17500    568.96785    62.108291      2204118          147  0.007193656    167.72933    1514.3415 
   17600    596.55057    56.286988      2204118          147  0.007193656    113.79557    1525.6895 
   17700    601.54343    61.550293      2204118          147  0.007193656    151.47415     1575.185 
   17800    617.83015    60.049222      2204118          147  0.007193656    132.36445    1594.6221 
   17900    592.37409    61.305488      2204118          147  0.007193656    149.96637    1551.9756 
   18000    594.35268      58.9868      2204118          147  0.007193656     131.5575    1538.2495 
   18100    601.37077     60.34396      2204118          147  0.007193656    138.66939    1561.9716 
   18200    601.71216    63.356867      2204118          147  0.007193656     159.8384    1583.9486 
   18300    607.05843    64.359256      2204118          147  0.007193656    163.97383    1600.7374 
   18400    596.81175    67.220354      2204118          147  0.007193656    189.18804    1601.7001 
   18500    607.22132    66.255879      2204118          147  0.007193656    178.16531    1615.3144 
   18600    610.23467     62.45485      2204118          147  0.007193656    149.38369    1593.6646 
   18700    594.79114     59.66149      2204118          147  0.007193656    134.20495    1541.9347 
   18800    585.72038    61.425013      2204118          147  0.007193656    150.60015    1536.8616 
   18900    594.43499     66.05334      2204118          147  0.007193656    182.01871    1588.9056 
   19000    617.32837    67.697823      2204118          147  0.007193656    185.45068    1646.5207 
   19100    616.16118    65.092676      2204118          147  0.007193656    166.50152    1624.8091 
   19200    583.13873    63.905622      2204118          147  0.007193656    169.76782    1549.9191 
   19300    581.12096    63.851213      2204118          147  0.007193656    169.85363    1545.2293 
   19400    617.12771    63.189963      2204118          147  0.007193656    151.58386     1612.179 
   19500    615.44563    65.349079      2204118          147  0.007193656    168.95393     1625.568 
   19600    597.50808    62.778249      2204118          147  0.007193656    155.99162    1570.1517 
   19700    576.30441    63.203742      2204118          147  0.007193656    167.41627    1531.3923 
   19800     599.9127    63.272895      2204118          147  0.007193656    158.66709    1578.5184 
   19900    618.49439    66.104322      2204118          147  0.007193656    173.40545    1637.2352 
   20000    621.92734     62.15026      2204118          147  0.007193656     143.8937    1615.8484 
   20100    589.17399     55.73984      2204118          147  0.007193656    108.04141    1502.4767 
   20200    554.93909    58.733418      2204118          147  0.007193656    142.46571    1455.8751 
   20300    609.70091    59.703045      2204118          147  0.007193656     126.6788    1569.6965 
   20400     625.7602    68.875867      2204118          147  0.007193656    187.27748    1668.3037 
   20500    620.09668     68.16572      2204118          147  0.007193656    183.20452    1650.8265 
   20600    584.05898     63.91185      2204118          147  0.007193656    165.10763    1547.4369 
   20700     566.1134    65.379188      2204118          147  0.007193656    184.31013    1524.1665 
   20800    631.07418    60.868258      2204118          147  0.007193656    128.38326    1621.9864 
   20900    617.70033    62.531458      2204118          147  0.007193656    147.90031    1609.8507 
   21000    584.84926     56.89169      2204118          147  0.007193656    117.50486    1501.7045 
   21100    566.45288    57.037969      2204118          147  0.007193656     124.8054    1465.4652 
   21200    595.95416    63.431358      2204118          147  0.007193656    160.96382    1571.4462 
   21300    639.16784     67.65368      2204118          147  0.007193656    175.67842    1688.4373 
   21400    632.01446     64.27677      2204118          147  0.007193656    153.13102    1648.9596 
   21500    576.08242    59.362513      2204118          147  0.007193656    138.29705    1501.7477 
   21600    564.28003    56.292186      2204118          147  0.007193656    121.23309    1456.7503 
   21700    603.59029    60.019615      2204118          147  0.007193656    136.56834    1565.1236 
   21800    646.15221    61.299272      2204118          147  0.007193656    131.17385    1660.4631 
   21900    604.41934    59.728927      2204118          147  0.007193656    133.87291    1564.3904 
   22000    555.55654    58.656597      2204118          147  0.007193656    142.67787    1457.5486 
   22100    581.56705    59.850653      2204118          147  0.007193656    141.31371    1517.7452 
   22200    627.61912    66.205947      2204118          147  0.007193656    172.29557    1657.7214 
   22300    651.67921    60.084922      2204118          147  0.007193656    118.26831    1660.6387 
   22400    572.51173    55.742361      2204118          147  0.007193656    115.88296    1470.8826 
   22500    546.53975    52.719192      2204118          147  0.007193656    102.81498    1396.3451 
   22600    598.77151     56.49086      2204118          147  0.007193656    111.05871    1528.2091 
   22700     649.6909    63.363304      2204118          147  0.007193656    143.63039    1681.2949 
   22800    626.94753    60.488724      2204118          147  0.007193656    129.57608    1613.4124 
   22900     550.4693     58.79702      2204118          147  0.007193656    144.68033    1447.5108 
   23000    566.04618    56.907103      2204118          147  0.007193656    125.42923    1465.1265 
   23100    641.79453    57.355368      2204118          147  0.007193656    102.33771    1621.3134 
   23200     640.8408    56.383205      2204118          147  0.007193656    95.466181    1612.1846 
   23300    561.02038    56.544801      2204118          147  0.007193656    125.60549    1453.4079 
   23400    566.97267    54.226498      2204118          147  0.007193656    106.56549    1448.4555 
   23500    623.33482    56.487855      2204118          147  0.007193656    103.60111     1578.887 
   23600    632.09237    60.773014      2204118          147  0.007193656    133.75307     1629.766 
   23700    604.86914    54.288035      2204118          147  0.007193656    96.682845    1528.2649 
   23800    564.58428    49.793863      2204118          147  0.007193656    79.241436    1415.4787 
   23900    581.28465    49.370946      2204118          147  0.007193656    70.361674    1446.1248 
   24000     621.0354    54.288341      2204118          147  0.007193656    91.692005    1561.5357 
   24100    622.31294    58.783959      2204118          147  0.007193656    124.20546    1597.0728 
   24200    609.01224      52.5369      2204118          147  0.007193656    82.373797    1523.7616 
   24300    565.58678    51.626435      2204118          147  0.007193656    91.408761    1430.0187 
   24400    580.06323    53.521303      2204118          147  0.007193656    99.166833    1472.0391 
   24500    631.52659    56.953249      2204118          147  0.007193656    105.63765    1600.3115 
   24600    629.70819    58.045181      2204118          147  0.007193656    115.31752    1605.6877 
   24700    589.95317     52.27531      2204118          147  0.007193656    87.647246    1483.9267 
   24800    557.27841    51.210419      2204118          147  0.007193656    91.945875    1410.8919 
   24900    597.66364    52.215931      2204118          147  0.007193656    84.936431    1499.4647 
   25000    643.79561    54.397805      2204118          147  0.007193656    84.805983    1608.5177 
   25100    613.78696    52.776424      2204118          147  0.007193656    83.478684    1536.1671 
   25200    560.07166    50.979197      2204118          147  0.007193656    89.467622    1415.0246 
   25300    573.83965    52.353523      2204118          147  0.007193656    95.341372    1453.4839 
   25400    642.99551    52.526853      2204118          147  0.007193656     72.56086     1594.379 
   25500    627.20726    53.076377      2204118          147  0.007193656    83.665495    1568.1165 
   25600    571.10137    50.130269      2204118          147  0.007193656    83.465894    1435.1276 
   25700    573.28052    46.629368      2204118          147  0.007193656    58.373057    1415.1923 
   25800    613.82978    47.078952      2204118          147  0.007193656    48.111704    1500.9014 
   25900    620.21255    50.468911      2204118          147  0.007193656    71.398649    1539.2949 
   26000    598.73856     49.48148      2204118          147  0.007193656    71.311275    1488.3837 
   26100    582.01229    48.171621      2204118          147  0.007193656    67.598533    1445.0838 
   26200     598.5007    47.176695      2204118          147  0.007193656    53.535998    1470.0454 
   26300    605.22285    50.429019      2204118          147  0.007193656    73.992247    1506.4114 
   26400    606.95273    51.950511      2204118          147  0.007193656    83.655438    1520.1688 
   26500    604.90544    50.023496      2204118          147  0.007193656    69.697138    1501.3651 
   26600    590.19713    49.434162      2204118          147  0.007193656    70.809496    1467.6663 
   26700    592.67269    49.403005      2204118          147  0.007193656    70.101228    1472.8171 
   26800    606.08476    50.144198      2204118          147  0.007193656    71.579804    1506.0389 
   26900    610.84891    49.729071      2204118          147  0.007193656    67.432553    1513.1673 
   27000    599.48921    47.787331      2204118          147  0.007193656    56.845432    1475.6944 
   27100    582.37993    48.602578      2204118          147  0.007193656    68.698004    1447.0534 
   27200    594.21116    50.896789      2204118          147  0.007193656    81.226432    1487.5835 
   27300    619.16744     52.23809      2204118          147  0.007193656    81.897209    1547.3199 
   27400    611.13846    51.849213      2204118          147  0.007193656    81.750336    1528.1703 
   27500     582.8892    51.825177      2204118          147  0.007193656    91.525662    1471.0864 
   27600    586.09611    52.737182      2204118          147  0.007193656    97.292604    1484.4433 
   27700    618.89441    52.794653      2204118          147  0.007193656    86.882645    1551.6592 
   27800    621.69737    50.130177      2204118          147  0.007193656    67.522898    1538.9333 
   27900    580.02852    48.264908      2204118          147  0.007193656     69.24059    1442.0307 
   28000    572.46931    48.434855      2204118          147  0.007193656    73.205738     1428.105 
   28100      610.826    50.949437      2204118          147  0.007193656    78.517035    1524.1975 
   28200    634.99263    51.189751      2204118          147  0.007193656    71.106834     1573.984 
   28300    591.11013    51.834857      2204118          147  0.007193656     92.21511    1491.2328 
   28400    575.29999    48.616678      2204118          147  0.007193656    74.681289    1436.2801 
   28500    596.43366    48.721494      2204118          147  0.007193656    69.352875    1480.9701 
   28600    626.21479    48.262992      2204118          147  0.007193656    56.377787    1538.4799 
   28700     603.2864    48.045469      2204118          147  0.007193656    64.340934     1492.177 
   28800    582.26053      45.2132      2204118          147  0.007193656    51.834881    1429.9077 
   28900    593.48947    42.676111      2204118          147  0.007193656    29.074753    1433.7238 
   29000    601.74076    45.687726      2204118          147  0.007193656    47.379886    1471.5578 
   29100    609.47484    48.042428      2204118          147  0.007193656    59.863922    1502.3465 
   29200    600.23417    50.157906      2204118          147  0.007193656    77.150866     1497.763 
   29300    594.27755    51.238048      2204118          147  0.007193656     86.87054    1493.3848 
   29400       604.15    50.379588      2204118          147  0.007193656    77.781552    1507.6615 
   29500    611.65958    47.129161      2204118          147  0.007193656    52.682206    1500.3356 
   29600    592.36778    45.322466      2204118          147  0.007193656    47.265814    1449.2601 
   29700    577.45992    47.027475      2204118          147  0.007193656    65.405434    1432.1163 
   29800    599.80231    50.707299      2204118          147  0.007193656    85.090166    1504.6802 
   29900    634.39404    50.086188      2204118          147  0.007193656    68.507081    1569.9675 
   30000    606.16804    47.308533      2204118          147  0.007193656     58.22402    1492.8802 
   30100    562.82861    46.752244      2204118          147  0.007193656    69.757948      1401.84 
   30200    581.82596    48.403094      2204118          147  0.007193656    75.088206    1452.1325 
   30300    628.16718    52.028038      2204118          147  0.007193656    85.436482    1572.1594 
   30400    631.94664    50.458776      2204118          147  0.007193656     73.00252    1568.6706 
   30500    580.79561    45.856883      2204118          147  0.007193656    57.905539    1432.5112 
   30600    559.87385    43.733337      2204118          147  0.007193656    50.260558    1375.3494 
   30700    602.30398    45.652188      2204118          147  0.007193656    49.503444    1475.0143 
   30800    640.15611    48.593401      2204118          147  0.007193656    57.747338    1572.8452 
   30900    613.08526     46.66788      2204118          147  0.007193656    53.044577    1504.0722 
   31000    563.34761    44.840969      2204118          147  0.007193656    56.839083    1390.1495 
   31100    569.81849    47.244488      2204118          147  0.007193656    71.246583     1419.872 
   31200    624.20691    52.925268      2204118          147  0.007193656    92.507363    1569.8573 
   31300    648.91579    53.033243      2204118          147  0.007193656    83.382046     1619.212 
   31400    587.41112    49.877116      2204118          147  0.007193656    81.910227    1472.1732 
   31500    548.78458    48.640265      2204118          147  0.007193656     86.32886     1385.172 
   31600    598.58516    49.666716      2204118          147  0.007193656    75.343662     1492.053 
   31700    642.71554    54.384538      2204118          147  0.007193656    94.306614    1615.4621 
   31800    620.37531    52.322497      2204118          147  0.007193656    86.950901    1555.2323 
   31900    565.89329    49.374873      2204118          147  0.007193656    86.195046    1425.5305 
   32000    574.67042    46.359996      2204118          147  0.007193656     61.84904    1421.9578 
   32100    615.41822     48.18927      2204118          147  0.007193656    61.299914    1517.8491 
   32200    632.39065    48.061622      2204118          147  0.007193656    54.039292    1550.7582 
   32300     588.7606     47.64848      2204118          147  0.007193656    66.880706    1460.3376 
   32400    575.61931    44.645804      2204118          147  0.007193656    48.659481    1411.0141 
   32500    590.99493    47.475373      2204118          147  0.007193656     62.58771    1461.3328 
   32600    613.67055    53.590518      2204118          147  0.007193656    98.424621    1550.8375 
   32700    626.47802    53.502767      2204118          147  0.007193656    92.260886     1574.986 
   32800    597.93436    49.581175      2204118          147  0.007193656    73.376342    1488.5454 
   32900     564.4709    49.281619      2204118          147  0.007193656    83.925096     1419.894 
   33000    596.11665    49.667774      2204118          147  0.007193656    75.853205    1486.7201 
   33100    633.33514    50.890947      2204118          147  0.007193656    71.783578    1570.7379 
   33200    610.47789    52.517425      2204118          147  0.007193656    92.977068    1537.8337 
   33300    591.44645    49.325438      2204118          147  0.007193656    77.899195    1477.7129 
   33400    593.07082     45.45642      2204118          147  0.007193656    49.116374    1452.7746 
   33500    588.33157    48.807897      2204118          147  0.007193656    75.660417    1468.1019 
   33600    608.86786    50.145549      2204118          147  0.007193656    75.636288    1516.6823 
   33700    598.76187    57.190569      2204118          147  0.007193656    130.97421    1548.1018 
   33800    622.47386    52.457622      2204118          147  0.007193656    86.506607    1559.7548 
   33900     598.2694    49.053051      2204118          147  0.007193656    70.544919    1486.5069 
   34000    569.15206    49.509028      2204118          147  0.007193656    85.424157    1432.4723 
   34100    600.28598    49.033252      2204118          147  0.007193656     70.71401    1491.4488 
   34200    628.56673    49.930466      2204118          147  0.007193656    67.033398     1554.702 
   34300    605.95388    49.883706      2204118          147  0.007193656    74.120919    1508.2702 
   34400    566.64625    52.514002      2204118          147  0.007193656    108.10962    1449.2271 
   34500    597.38113    52.214948      2204118          147  0.007193656    94.339705    1508.1994 
   34600    630.39356    54.197877      2204118          147  0.007193656    97.483526    1589.4758 
   34700    609.70115    53.565773      2204118          147  0.007193656    100.57238    1543.5906 
   34800    564.65504    52.332068      2204118          147  0.007193656     105.9903    1442.3951 
   34900    582.45344    51.739165      2204118          147  0.007193656    93.179238    1471.7086 
   35000    625.02074    56.163242      2204118          147  0.007193656    110.81854    1590.0946 
   35100    638.48775    53.471368      2204118          147  0.007193656    85.616031    1596.7653 
   35200    571.08396    52.462125      2204118          147  0.007193656    102.63565    1454.2562 
   35300    558.40709    51.548768      2204118          147  0.007193656    101.46441    1423.0818 
   35400    624.55946    49.988856      2204118          147  0.007193656    67.534909    1545.7193 
   35500    628.72245    52.523316      2204118          147  0.007193656    85.532754    1573.5699 
   35600    579.38702    53.088468      2204118          147  0.007193656    107.81814      1479.09 
   35700    582.33499    49.201122      2204118          147  0.007193656    77.868139    1456.1171 
   35800    595.93286    52.809555      2204118          147  0.007193656    100.23248    1510.6644 
   35900    628.62607    51.862498      2204118          147  0.007193656    80.757908    1568.5669 
   36000     604.9616    52.348599      2204118          147  0.007193656    92.386627    1524.1875 
   36100    582.14184    50.533286      2204118          147  0.007193656    86.379897    1464.1718 
   36200    589.86262    51.518997      2204118          147  0.007193656    91.070786    1487.1359 
   36300    622.32224    51.667048      2204118          147  0.007193656    80.783347    1553.6727 
   36400    611.82181    52.529213      2204118          147  0.007193656    91.580385    1539.6177 
   36500    583.11095    51.860689      2204118          147  0.007193656    96.977194    1477.0627 
   36600    587.23786    51.331607      2204118          147  0.007193656    91.708748    1481.5617 
   36700    609.51055    54.005775      2204118          147  0.007193656    105.49369    1548.0608 
   36800    630.98392     49.08415      2204118          147  0.007193656    61.297042    1554.6865 
   36900    576.82881    49.201484      2204118          147  0.007193656     81.18742    1446.4046 
   37000    568.39536    49.054668      2204118          147  0.007193656      81.7235    1426.9807 
   37100    603.83628    54.470937      2204118          147  0.007193656    108.87221    1538.0097 
   37200    645.08629    55.153194      2204118          147  0.007193656    98.835932    1625.6024 
   37300    608.35981    51.681678      2204118          147  0.007193656    87.113069    1526.9567 
   37400    560.69626    48.415918      2204118          147  0.007193656    80.389832    1407.4251 
   37500    574.82219    49.616839      2204118          147  0.007193656    84.174312    1444.6423 
   37600    633.03421    52.913241      2204118          147  0.007193656    87.265814    1585.5079 
   37700    628.28682    56.463939      2204118          147  0.007193656    115.29401    1602.3001 
   37800    588.47896    51.614352      2204118          147  0.007193656    92.319919    1485.1103 
   37900    565.00006    50.341481      2204118          147  0.007193656    91.267547    1428.4889 
   38000      594.967     53.39944      2204118          147  0.007193656    103.17875    1511.3247 
   38100    645.15636    52.934005      2204118          147  0.007193656    80.774519    1607.7068 
   38200    607.22681    53.599132      2204118          147  0.007193656    99.029115    1536.1912 
   38300    563.87892    52.786829      2204118          147  0.007193656     108.8804    1443.4483 
   38400    595.99942    49.254738      2204118          147  0.007193656    71.330419    1481.9199 
   38500    621.12771    51.224851      2204118          147  0.007193656    76.864259    1546.9265 
   38600    611.06664    51.686564      2204118          147  0.007193656     83.17578    1529.4258 
   38700    584.14723    50.865528      2204118          147  0.007193656    85.747704    1468.2859 
   38800     575.9173    53.586995      2204118          147  0.007193656    107.86527    1470.9251 
   38900    616.34455    55.523826      2204118          147  0.007193656    107.57243     1566.314 
   39000    636.35812    54.400739      2204118          147  0.007193656    93.019104    1599.1281 
   39100    594.29971    50.152878      2204118          147  0.007193656    78.093873    1484.6605 
   39200    557.97985    48.514335      2204118          147  0.007193656    79.720551    1400.3267 
   39300    587.05333    51.337546      2204118          147  0.007193656    90.306428    1479.7226 
   39400    645.18307    53.565797      2204118          147  0.007193656    86.173966    1613.1695 
   39500    630.94686    49.591339      2204118          147  0.007193656    61.933504    1555.2353 
   39600    558.26381    46.499591      2204118          147  0.007193656    65.789755     1387.068 
   39700    556.76527    46.171068      2204118          147  0.007193656    63.770632    1381.5022 
   39800    617.85428    51.766028      2204118          147  0.007193656    82.683274     1544.998 
   39900     653.5924    55.704399      2204118          147  0.007193656    98.654472    1645.5529 
   40000    599.55548    54.198618      2204118          147  0.007193656    107.53223    1526.5381 
   40100    553.59107    50.162343      2204118          147  0.007193656    94.581795    1404.8008 
   40200    586.93518    48.699952      2204118          147  0.007193656    72.562985    1461.6995 
   40300    643.97287    49.433817      2204118          147  0.007193656    57.999509    1582.1308 
   40400    620.15843    48.667981      2204118          147  0.007193656    60.026117    1527.7943 
   40500    554.01263    50.684332      2204118          147  0.007193656    97.621106    1408.8378 
   40600    574.48242     52.47846      2204118          147  0.007193656    102.55607    1462.2199 
   40700    648.44417    53.349798      2204118          147  0.007193656    82.758978    1617.4728 
   40800     633.4475    52.728515      2204118          147  0.007193656    85.520909    1584.7411 
   40900    569.90859    46.421599      2204118          147  0.007193656    61.971874    1410.8105 
   41000     545.4987    47.550724      2204118          147  0.007193656    79.744997    1370.8112 
   41100    614.17024    51.375205      2204118          147  0.007193656    83.812928    1537.4084 
   41200    661.98423    53.869603      2204118          147  0.007193656    85.869266    1652.6292 
   41300    603.21448    49.885185      2204118          147  0.007193656    78.050495    1505.7163 
   41400    547.94573    44.877891      2204118          147  0.007193656    61.576455    1358.4342 
   41500    576.09037     44.52155      2204118          147  0.007193656    48.988658    1412.4581 
   41600    632.58324    50.738667      2204118          147  0.007193656    74.204312     1571.379 
   41700     636.9528    53.334249      2204118          147  0.007193656    90.222216    1597.7386 
   41800    578.93074    52.901471      2204118          147  0.007193656    106.59735    1476.7893 
   41900    567.74449    50.181014      2204118          147  0.007193656    88.921431    1432.6382 
   42000     601.0496    52.786978      2204118          147  0.007193656    95.426669    1517.9687 
   42100    633.18019    55.901882      2204118          147  0.007193656    106.21069    1604.7982 
   42200    616.92657    52.867831      2204118          147  0.007193656    88.444071    1548.5632 
   42300    565.68827    51.572488      2204118          147  0.007193656    97.424609    1436.2748 
   42400    579.05687    50.354958      2204118          147  0.007193656    84.320078    1454.8106 
   42500    626.41546     51.37413      2204118          147  0.007193656     75.98083    1558.5579 
   42600    617.68917    53.831452      2204118          147  0.007193656    98.309466    1560.2335 
   42700    589.04467    50.434855      2204118          147  0.007193656    84.102676    1478.2319 
   42800    578.20014    48.208086      2204118          147  0.007193656    72.935824    1441.3986 
   42900    599.72172    49.009285      2204118          147  0.007193656    72.294453    1491.6937 
   43000    625.44902       48.795      2204118          147  0.007193656    61.530341    1541.8201 
   43100     598.5685    49.599975      2204118          147  0.007193656    76.762623    1493.4325 
   43200    578.84469    48.669536      2204118          147  0.007193656    75.786139    1445.7744 
   43300    595.68854     49.06444      2204118          147  0.007193656    72.083482    1481.9372 
   43400    616.26903    51.055239      2204118          147  0.007193656    78.714663    1537.2775 
   43500    603.99718    53.210852      2204118          147  0.007193656    98.720259    1528.2385 
   43600    592.35674    52.162133      2204118          147  0.007193656    95.467324    1497.4354 
   43700    600.98527    48.941514      2204118          147  0.007193656    69.387646    1491.7775 
   43800    599.79509    48.629881      2204118          147  0.007193656    68.826929    1488.3999 
   43900    597.84514    48.670404      2204118          147  0.007193656    70.645983    1485.6039 
   44000     604.1835    47.098696      2204118          147  0.007193656    56.986655    1486.9459 
   44100     591.3682    49.224694      2204118          147  0.007193656    77.658727    1477.2872 
   44200    596.50283    49.653296      2204118          147  0.007193656    77.711286    1489.4922 
   44300    607.50699    50.258552      2204118          147  0.007193656     77.87688    1515.7021 
   44400    612.48539    47.841789      2204118          147  0.007193656    57.736662    1507.3445 
   44500    581.32987    49.667856      2204118          147  0.007193656    82.203653    1458.0738 
   44600    590.65951     49.64262      2204118          147  0.007193656    77.909631    1475.8608 
   44700    610.99093    51.800956      2204118          147  0.007193656    86.228549    1532.2994 
   44800    610.41195     54.04389      2204118          147  0.007193656    103.16018    1547.8607 
   44900    604.65679    51.240032      2204118          147  0.007193656    84.899578     1515.979 
   45000    589.70628    48.635815      2204118          147  0.007193656     71.55917    1467.2543 
   45100    592.90457    47.267329      2204118          147  0.007193656    61.010853    1464.2756 
   45200    606.40482    47.473758      2204118          147  0.007193656    57.920601    1493.1372 
   45300     600.7563    50.185146      2204118          147  0.007193656     79.75332    1501.6012 
   45400    597.13892    51.392525      2204118          147  0.007193656    89.672116    1502.9585 
   45500    607.34309     49.82915      2204118          147  0.007193656    74.442083    1511.8793 
   45600    602.69508     48.79573      2204118          147  0.007193656    68.515007    1494.9515 
   45700    588.39799    48.900663      2204118          147  0.007193656     73.52755    1466.1262 
   45800    588.77696    51.139789      2204118          147  0.007193656    88.334183    1481.8298 
   45900     609.5594    53.190701      2204118          147  0.007193656    94.347485    1537.0302 
   46000    614.02538    54.218859      2204118          147  0.007193656    99.587216    1552.8399 
   46100    598.07219    53.511389      2204118          147  0.007193656    100.66971     1516.165 
   46200    594.50875    50.621655      2204118          147  0.007193656    81.268889    1488.3303 
   46300    594.06979    50.175979      2204118          147  0.007193656    79.021552     1485.044 
   46400    605.04721    49.112045      2204118          147  0.007193656    67.267986    1499.2715 
   46500     599.5139    50.571334      2204118          147  0.007193656    79.531716    1498.4391 
   46600    586.80212     55.23402      2204118          147  0.007193656    118.37084    1507.1925 
   46700    614.46735    54.655993      2204118          147  0.007193656    104.30217    1558.6009 
   46800    615.57327    53.512138      2204118          147  0.007193656    96.726833     1553.643 
   46900    596.05009    48.396101      2204118          147  0.007193656    66.366515    1477.0759 
   47000    565.46586    50.283779      2204118          147  0.007193656    92.902626    1431.2264 
   47100    608.57671    49.081253      2204118          147  0.007193656    69.069005    1509.4259 
   47200    634.09091     49.33604      2204118          147  0.007193656    62.196654    1562.9397 
   47300    590.15572     50.53175      2204118          147  0.007193656    86.837021    1483.5959 
   47400    570.82153    49.492988      2204118          147  0.007193656    85.757742    1436.7571 
   47500    595.14617    51.791824      2204118          147  0.007193656    93.979418    1502.5495 
   47600    642.61222    50.075601      2204118          147  0.007193656    64.011838    1584.9228 
   47700    600.70951    51.108062      2204118          147  0.007193656    87.071041    1508.8082 
   47800    565.34629    49.724606      2204118          147  0.007193656    88.316349    1426.3571 
   47900    581.22646    53.684866      2204118          147  0.007193656    111.72299    1487.3484 
   48000    635.48945    56.489185      2204118          147  0.007193656     112.7488    1616.8018 
   48100    639.19695    51.830325      2204118          147  0.007193656    77.245386    1590.0732 
   48200    572.64584    46.064155      2204118          147  0.007193656    58.898211    1414.2153 
   48300    543.55543    46.789151      2204118          147  0.007193656    73.939928    1360.4069 
   48400    606.01439     51.93114      2204118          147  0.007193656    87.983988    1522.2765 
   48500    658.90803    57.617564      2204118          147  0.007193656    109.55805    1669.0373 
   48600    613.12389    56.413136      2204118          147  0.007193656    116.44477    1567.5638 
   48700    563.51717    49.325776      2204118          147  0.007193656    83.111816    1416.8235 
   48800    575.17292    44.768242      2204118          147  0.007193656    47.140379    1408.4385 
   48900    612.28483    47.817915      2204118          147  0.007193656    57.289102    1506.4223 
   49000     619.7385    53.391577      2204118          147  0.007193656    95.449819    1562.2241 
   49100    601.88649    53.560631      2204118          147  0.007193656     101.6177    1526.1405 
   49200    587.46611      51.5014      2204118          147  0.007193656    90.707591    1481.1008 
   49300    594.84898    50.479843      2204118          147  0.007193656    79.627588    1487.4942 
   49400    601.55021      53.5642      2204118          147  0.007193656    99.267525    1522.9944 
   49500    614.06972    53.622419      2204118          147  0.007193656    94.180666    1547.5383 
   49600    600.29362    53.097147      2204118          147  0.007193656     95.25248    1516.0053 
   49700    590.71894    51.680826      2204118          147  0.007193656    89.224092    1487.3159 
   49800    598.27547    50.614173      2204118          147  0.007193656    79.447505    1495.4239 
   49900    600.70323    52.013456      2204118          147  0.007193656    89.694899    1511.4172 
   50000    605.16003    51.940614      2204118          147  0.007193656    87.663058    1519.9335 
   50100    593.82698    53.518289      2204118          147  0.007193656    102.74831    1508.1961 
   50200    598.36587    53.038153      2204118          147  0.007193656    96.618818    1512.8091 
   50300    600.95713    54.521789      2204118          147  0.007193656    107.24468    1529.5679 
   50400     611.4031    52.030147      2204118          147  0.007193656    85.357567    1532.4039 
   50500    593.81858    51.885209      2204118          147  0.007193656    90.863319    1496.2913 
   50600    590.23968    50.807394      2204118          147  0.007193656    84.057236    1481.0148 
   50700    602.47033    50.241399      2204118          147  0.007193656    76.309827    1502.2144 
   50800    609.29854    49.869493      2204118          147  0.007193656    72.397961    1514.4633 
   50900    600.37295    48.671992      2204118          147  0.007193656    67.133473    1488.0741 
   51000    581.60419    50.605459      2204118          147  0.007193656    87.699846    1464.2192 
   51100    594.87046    52.804783      2204118          147  0.007193656    98.125961    1506.0435 
   51200    617.65567    55.367827      2204118          147  0.007193656    108.92163    1570.7663 
   51300    617.78258    54.428819      2204118          147  0.007193656    103.34161    1565.4867 
   51400    585.95971    51.305244      2204118          147  0.007193656    92.481878    1479.3098 
   51500    577.10993    49.354557      2204118          147  0.007193656    80.815567    1446.6981 
   51600    596.22742    53.422806      2204118          147  0.007193656      105.179    1516.3081 
   51700    638.10591    51.295215      2204118          147  0.007193656    74.559024    1584.8046 
   51800    601.60082    49.841383      2204118          147  0.007193656    77.011012    1500.8577 
   51900    562.46135    49.048219      2204118          147  0.007193656     84.62975    1415.8426 
   52000    583.15155    52.171728      2204118          147  0.007193656    99.644151    1479.8258 
   52100    639.05896    53.969706      2204118          147  0.007193656    91.951218    1604.4524 
   52200    628.08864    51.955527      2204118          147  0.007193656    80.041562    1566.5786 
   52300    565.01711    50.457416      2204118          147  0.007193656    90.692679    1427.9544 
   52400    560.27692    51.766381      2204118          147  0.007193656    100.94331    1426.9861 
   52500    622.66656    55.595137      2204118          147  0.007193656    105.25742    1578.9617 
   52600    642.40334    60.224443      2204118          147  0.007193656    131.77746     1652.194 
   52700    601.80601    56.337706      2204118          147  0.007193656    117.18767      1541.52 
   52800    565.74455    52.054986      2204118          147  0.007193656    99.378544    1438.3619 
   52900    587.95147    50.834443      2204118          147  0.007193656    83.382128     1474.924 
   53000    621.76028    53.856553      2204118          147  0.007193656    94.323625     1565.883 
   53100    617.99886     55.33922      2204118          147  0.007193656    106.92518    1569.5821 
   53200    591.23079    52.753655      2204118          147  0.007193656    97.541539    1496.8448 
   53300      578.648     51.47236      2204118          147  0.007193656    93.148615    1462.6714 
   53400     601.2126    52.215805      2204118          147  0.007193656    91.089324    1514.0172 
   53500    619.17843     54.26578      2204118          147  0.007193656    100.45367    1565.9024 
   53600    606.69209    53.447666      2204118          147  0.007193656     98.76036    1534.6569 
   53700    587.57682    50.470085      2204118          147  0.007193656    84.167219    1474.8224 
   53800    588.88938    48.734546      2204118          147  0.007193656    70.953925    1464.7156 
   53900    595.16346     52.32354      2204118          147  0.007193656    94.692479    1503.3034 
   54000     613.0837    54.902763      2204118          147  0.007193656    105.90104     1556.925 
   54100    610.94354    55.831532      2204118          147  0.007193656    112.69676    1558.6554 
   54200    595.70033    54.398508      2204118          147  0.007193656    107.27738     1517.159 
   54300    583.70119    54.230901      2204118          147  0.007193656    110.50904    1491.9915 
   54400     603.7035    53.552313      2204118          147  0.007193656    98.202202    1527.0254 
   54500    618.21909    53.144757      2204118          147  0.007193656    89.758099    1552.9363 
   54600    592.60949     54.68129      2204118          147  0.007193656    110.31054    1512.8769 
   54700    588.22811    53.124238      2204118          147  0.007193656     99.86747    1492.0641 
   54800    598.80144    54.229754      2204118          147  0.007193656    104.82424    1522.0454 
   54900     619.6087    52.791559      2204118          147  0.007193656    86.894698    1553.3618 
   55000    602.84616    52.907589      2204118          147  0.007193656    94.953308    1521.7474 
   55100    593.83297    48.923655      2204118          147  0.007193656    68.712895    1474.1749 
   55200     575.4366    52.637618      2204118          147  0.007193656    103.18084     1465.103 
   55300    613.85609    53.652312      2204118          147  0.007193656     97.00346    1549.8555 
   55400    630.69525    53.640152      2204118          147  0.007193656    90.706275    1583.4126 
   55500     591.9424     52.39228      2204118          147  0.007193656    95.258855    1496.2463 
   55600    571.43791    50.343864      2204118          147  0.007193656    87.378404    1439.8366 
   55700    593.65439    51.233122      2204118          147  0.007193656    85.392594    1490.4319 
   55800    617.36947    55.756255      2204118          147  0.007193656    110.27253    1571.4399 
   55900    628.13238    53.652983      2204118          147  0.007193656    91.776504    1578.4171 
   56000    596.82412    47.333155      2204118          147  0.007193656    57.176393    1469.7178 
   56100    554.91648    48.160661      2204118          147  0.007193656    79.517482    1392.8734 
   56200    601.95162    47.548493      2204118          147  0.007193656     58.08902     1482.766 
   56300    633.56343    51.475577      2204118          147  0.007193656    75.404873    1574.8995 
   56400    605.27696    52.975976      2204118          147  0.007193656    95.923096    1528.4703 
   56500    578.63297     50.15999      2204118          147  0.007193656    83.681227    1453.1684 
   56600    581.64542    50.980589      2204118          147  0.007193656    88.534478    1465.1514 
   56700    615.52171    53.493409      2204118          147  0.007193656    95.351184    1552.1453 
   56800    632.54276     51.70178      2204118          147  0.007193656    76.078987    1573.1579 
   56900    584.02461    51.070447      2204118          147  0.007193656    89.637564    1471.8855 
   57000    570.56287    48.612644      2204118          147  0.007193656    75.812179    1426.1994 
   57100     590.0744    53.827583      2204118          147  0.007193656    107.67454    1504.2409 
   57200    643.25269    54.128172      2204118          147  0.007193656    90.560119    1612.9869 
   57300    621.34186     51.20332      2204118          147  0.007193656    77.712183    1548.2812 
   57400    566.41921     46.46835      2204118          147  0.007193656    63.120429    1403.7006 
   57500    563.78425    45.958907      2204118          147  0.007193656    60.372831    1394.7166 
   57600    615.19041    50.177634      2204118          147  0.007193656    72.769593    1528.7796 
   57700    643.51218    52.296194      2204118          147  0.007193656    76.939196    1599.9801 
   57800    588.95982    54.019927      2204118          147  0.007193656    109.01847    1502.9469 
   57900    570.71311    50.811217      2204118          147  0.007193656    91.467342    1442.2101 
   58000    596.30248    51.865331      2204118          147  0.007193656    91.051262     1502.358 
   58100    636.61256    50.574277      2204118          147  0.007193656    66.734624    1573.4458 
   58200    591.99746     54.27162      2204118          147  0.007193656    110.45474    1511.5725 
   58300    579.46229    51.997296      2204118          147  0.007193656    97.518936    1468.9689 
   58400    597.50341    52.442731      2204118          147  0.007193656    94.326962     1508.476 
   58500    619.27864    53.576373      2204118          147  0.007193656    94.934373    1560.6203 
   58600    609.41999    52.753323      2204118          147  0.007193656    92.826971    1535.1798 
   58700    585.57414    50.263875      2204118          147  0.007193656    83.269158    1469.1845 
   58800    585.04721     49.01057      2204118          147  0.007193656    74.305202    1458.9734 
   58900    602.31019    51.290329      2204118          147  0.007193656    84.564464      1510.09 
   59000    619.64642    52.566499      2204118          147  0.007193656    87.261738    1553.8181 
   59100    604.60815    51.786602      2204118          147  0.007193656    86.114741    1517.0791 
   59200    579.84838    51.420554      2204118          147  0.007193656    91.567001    1463.9308 
   59300    591.11533    51.723434      2204118          147  0.007193656      89.3552    1488.3852 
   59400    617.97763    52.574419      2204118          147  0.007193656    86.136912    1548.7436 
   59500     617.3256    50.851311      2204118          147  0.007193656    74.109368    1535.1729 
   59600    579.00124    50.958121      2204118          147  0.007193656    89.862133     1460.221 
   59700    575.36433    52.541661      2204118          147  0.007193656    103.54749    1465.2986 
   59800    618.30053    53.642486      2204118          147  0.007193656    97.939539    1561.3105 
   59900    635.21482    50.938232      2204118          147  0.007193656    74.157791    1577.5608 
   60000    584.62062    47.635756      2204118          147  0.007193656    69.406877    1453.0654 
   60100    558.63102    46.618871      2204118          147  0.007193656    71.951395    1394.0987 
   60200    601.18101    48.347567      2204118          147  0.007193656    69.831553    1492.6846 
   60300    642.74799    50.423891      2204118          147  0.007193656    70.274176    1591.5064 
   60400    605.68579    50.462062      2204118          147  0.007193656    83.281462    1516.7963 
   60500    569.77135    47.421519      2204118          147  0.007193656    73.141126     1421.655 
   60600    579.76396    47.936952      2204118          147  0.007193656    73.106052    1445.2701 
   60700    620.40906    50.422209      2204118          147  0.007193656    75.923392    1544.2847 
   60800    625.45987    51.609225      2204118          147  0.007193656    81.793181    1562.1086 
   60900    588.17567    50.923992      2204118          147  0.007193656    89.683491     1481.756 
   61000     577.1299    49.311629      2204118          147  0.007193656    82.493433    1448.4232 
   61100    603.92895    48.653897      2204118          147  0.007193656    68.746824    1498.1036 
   61200    623.96529    47.890887      2204118          147  0.007193656    56.337001    1533.1151 
   61300    596.57722      47.6904      2204118          147  0.007193656    64.673171    1476.6302 
   61400    577.97446    46.563229      2204118          147  0.007193656    62.349156    1430.2778 
   61500    592.17352    48.247465      2204118          147  0.007193656    69.869209    1471.4037 
   61600    622.87852     49.78721      2204118          147  0.007193656    70.275296    1544.4812 
   61700    611.79794    50.346819      2204118          147  0.007193656    78.409246    1526.3901 
   61800    586.13418    48.053842      2204118          147  0.007193656    69.220232     1456.461 
   61900    577.70591    50.284546      2204118          147  0.007193656    87.968707    1455.2618 
   62000    615.55156    51.393907      2204118          147  0.007193656    81.452726    1538.3175 
   62100    626.47273     51.84419      2204118          147  0.007193656     79.95151    1562.6641 
   62200    584.18674    52.828404      2204118          147  0.007193656    101.54244    1484.1741 
   62300    574.31627    52.687622      2204118          147  0.007193656    103.93707    1463.2077 
   62400    607.22471    54.269442      2204118          147  0.007193656    105.77658    1542.9337 
   62500    642.62198      49.4418      2204118          147  0.007193656    57.730076    1578.6641 
   62600    579.25149    50.258256      2204118          147  0.007193656    86.985359    1457.9365 
   62700    563.25665    49.127309      2204118          147  0.007193656    83.562265    1416.6574 
   62800    608.75497    51.284957      2204118          147  0.007193656    83.369063    1524.1479 
   62900    640.15479    52.471517      2204118          147  0.007193656    80.943517    1596.0383 
   63000       595.38    52.273692      2204118          147  0.007193656    95.988287    1505.1118 
   63100    574.68645    47.198958      2204118          147  0.007193656    65.552741    1425.6995 
   63200    582.09384    49.251147      2204118          147  0.007193656    78.351034    1456.0293 
   63300    618.36511    52.807692      2204118          147  0.007193656    91.180127    1554.7039 
   63400    625.37476     54.08743      2204118          147  0.007193656    97.870603    1577.9845 
   63500    597.36723    50.212051      2204118          147  0.007193656    78.656897    1492.4837 
   63600    569.96014    49.115999      2204118          147  0.007193656    80.547183    1429.5078 
   63700    595.33879    49.684414      2204118          147  0.007193656    75.709674    1484.7356 
   63800    623.26048    52.922883      2204118          147  0.007193656     90.07035    1565.1803 
   63900    621.80047    50.552993      2204118          147  0.007193656    73.505095    1545.1596 
   64000    578.63271    48.449792      2204118          147  0.007193656    74.146513    1443.6331 
   64100    570.44771    48.736404      2204118          147  0.007193656    79.693523    1429.8081 
   64200    615.58512    49.698736      2204118          147  0.007193656    69.686795     1526.631 
   64300    622.33609    54.524788      2204118          147  0.007193656    101.85291    1574.7751 
   64400     593.1501    56.134683      2204118          147  0.007193656    122.87823    1526.7241 
   64500    587.53478    54.128576      2204118          147  0.007193656     110.1728    1500.7285 
   64600    611.13582    50.928121      2204118          147  0.007193656      79.4431    1525.8569 
   64700    609.47944    49.106792      2204118          147  0.007193656    67.697674    1510.1912 
   64800     585.5041    49.206329      2204118          147  0.007193656    77.300094    1463.0496 
   64900    578.83824    53.407822      2204118          147  0.007193656    110.77973    1480.7528 
   65000    628.65325    52.354958      2204118          147  0.007193656    84.834188    1572.7076 
   65100    622.62446    51.707306      2204118          147  0.007193656    82.944304     1556.549 
   65200    576.52284    49.154957      2204118          147  0.007193656    80.381141    1444.8742 
   65300    564.66637    50.083679      2204118          147  0.007193656    91.204188    1427.6358 
   65400    619.52317    50.810871      2204118          147  0.007193656    75.757392     1542.022 
   65500    630.53924    54.720951      2204118          147  0.007193656    100.65863    1592.9957 
   65600     600.4664    52.203921      2204118          147  0.007193656    93.050087    1514.2119 
   65700    575.06506    48.240193      2204118          147  0.007193656    73.762983    1434.8058 
   65800    585.46059    47.714694      2204118          147  0.007193656    65.909507    1451.5561 
   65900    609.30757    52.910575      2204118          147  0.007193656    95.323611    1537.4103 
   66000    624.99991    55.435173      2204118          147  0.007193656    108.16014    1587.3869 
   66100    609.77023    51.177498      2204118          147  0.007193656    81.673547    1524.8553 
   66200    570.30768    49.705846      2204118          147  0.007193656    85.098941    1434.8822 
   66300    583.47571    49.421368      2204118          147  0.007193656    77.805311    1458.7541 
   66400    618.38183    52.519339      2204118          147  0.007193656    87.448667     1551.012 
   66500    621.05132    55.038863      2204118          147  0.007193656    104.65758     1574.539 
   66600     599.4267    52.585567      2204118          147  0.007193656    94.315775    1513.0168 
   66700    577.74055     50.76972      2204118          147  0.007193656    88.826685    1456.2018 
   66800    589.90815    51.856514      2204118          147  0.007193656    92.445036    1488.6179 
   66900    617.10106    55.425854      2204118          147  0.007193656    109.62359    1570.1556 
   67000    629.40053    52.535125      2204118          147  0.007193656     84.11019    1573.7522 
   67100     586.7049    49.980964      2204118          147  0.007193656    81.656569    1470.2481 
   67200    560.51125    50.635856      2204118          147  0.007193656    95.450451    1422.0478 
   67300    592.27873    55.783675      2204118          147  0.007193656    121.53345    1523.3169 
   67400    656.85823    54.985187      2204118          147  0.007193656    92.110804    1646.7387 
   67500    610.71985    53.826129      2204118          147  0.007193656    101.11845    1546.5477 
   67600    559.78322    49.467173      2204118          147  0.007193656    87.897696     1412.772 
   67700    577.80288    47.788127      2204118          147  0.007193656    69.303839    1436.8264 
   67800    619.82031    51.992386      2204118          147  0.007193656     85.21818    1552.1861 
   67900    624.57269    55.171743      2204118          147  0.007193656    106.67109    1584.8867 
   68000    598.81117    52.133762      2204118          147  0.007193656    92.453793     1509.698 
   68100    568.00164    52.690186      2204118          147  0.007193656    107.11352    1451.4389 
   68200    593.00376    54.644513      2204118          147  0.007193656    112.26737    1515.7668 
   68300    639.20642    54.070565      2204118          147  0.007193656    90.951512    1603.8017 
   68400    606.19511    54.543234      2204118          147  0.007193656    106.33039    1541.0507 
   68500    571.50581    52.192388      2204118          147  0.007193656    101.01184    1453.6308 
   68600    581.60658     52.79867      2204118          147  0.007193656    101.78867    1478.3137 
   68700    618.65777    55.683417      2204118          147  0.007193656    109.20366    1573.4201 
   68800    621.56593    58.453747      2204118          147  0.007193656    128.40137    1599.5007 
   68900    606.43008    52.876134      2204118          147  0.007193656    93.041199    1528.3176 
   69000    572.05702    50.142687      2204118          147  0.007193656    87.454369    1441.3779 
   69100    590.80487    47.835316      2204118          147  0.007193656    65.178617    1463.4738 
   69200    620.82572    48.863023      2204118          147  0.007193656     63.04571    1532.3932 
   69300    607.79804    50.423709      2204118          147  0.007193656    79.197957     1517.712 
   69400    591.25092    47.854476      2204118          147  0.007193656    65.602024    1464.9529 
   69500    588.86692    46.416741      2204118          147  0.007193656    55.357014    1449.0656 
   69600    590.42729    50.913082      2204118          147  0.007193656    87.326211    1484.7278 
   69700    614.91591    53.872315      2204118          147  0.007193656    98.856958    1554.2173 
   69800    615.00096    55.652465      2204118          147  0.007193656    111.69733     1567.259 
   69900     601.2118    51.873702      2204118          147  0.007193656    88.883382    1511.8093 
   70000    582.13337    49.649447      2204118          147  0.007193656    79.742751    1457.5146 
   70100    591.88014     49.58533      2204118          147  0.007193656    75.457822     1476.298 
   70200    608.18667    52.656677      2204118          147  0.007193656    91.345424    1530.7792 
   70300    610.98173    54.547975      2204118          147  0.007193656    103.42998     1549.479 
   70400    605.64321    52.483627      2204118          147  0.007193656    90.805073    1524.2191 
   70500    591.32349    49.744949      2204118          147  0.007193656    76.493875    1476.0165 
   70600    578.71665    51.887285      2204118          147  0.007193656    97.172528    1466.8578 
   70700    612.97196    52.880858      2204118          147  0.007193656    92.212269    1542.9717 
   70800    626.01444    53.820601      2204118          147  0.007193656    94.112352    1575.7403 
   70900    587.78707    54.159075      2204118          147  0.007193656    109.46393    1500.6167 
   71000    578.66024    53.027003      2204118          147  0.007193656    104.61852    1474.1703 
   71100    614.03839    51.163117      2204118          147  0.007193656    79.159578     1532.443 
   71200    616.20423    52.053529      2204118          147  0.007193656    86.109754    1544.5192 
   71300    593.43533    50.799225      2204118          147  0.007193656    85.697317    1490.2182 
   71400    581.86677    50.679247      2204118          147  0.007193656    89.974171     1467.115 
   71500    602.27989     51.03914      2204118          147  0.007193656    85.278743    1510.7326 
   71600    615.60192    52.902125      2204118          147  0.007193656    94.685019     1551.669 
   71700    609.04536    51.235929      2204118          147  0.007193656    84.743575    1526.2097 
   71800    578.38657    51.621788      2204118          147  0.007193656    99.532155    1468.4362 
   71900    600.78624    47.419046      2204118          147  0.007193656    60.497745    1482.4165 
   72000    605.72096    49.128776      2204118          147  0.007193656    71.777133    1505.3752 
   72100    601.37441    50.384906      2204118          147  0.007193656    81.861631    1505.1724 
   72200    597.82326    49.749777      2204118          147  0.007193656    76.554711    1491.4608 
   72300    590.47068    51.699127      2204118          147  0.007193656    91.118465    1488.6227 
   72400    598.37271    55.712376      2204118          147  0.007193656    116.84253     1533.049 
   72500    626.30583    53.848978      2204118          147  0.007193656    92.988556    1575.3061 
   72600    607.25787    50.788867      2204118          147  0.007193656    77.980834    1515.2164 
   72700    567.61205    50.788847      2204118          147  0.007193656    92.362967    1435.7663 
   72800    582.49009     53.27533      2204118          147  0.007193656    105.34511    1483.9612 
   72900    628.85802    56.590349      2204118          147  0.007193656    113.69183    1602.0498 
   73000    632.54672    54.437645      2204118          147  0.007193656     97.04185    1594.1301 
   73100    584.79636    48.969804      2204118          147  0.007193656    74.187222    1458.2617 
   73200    559.03943    47.981752      2204118          147  0.007193656    76.468326    1399.5823 
   73300    598.15836    51.407326      2204118          147  0.007193656    87.481293    1503.1805 
   73400    629.08858    58.452355      2204118          147  0.007193656    128.93596    1617.8397 
   73500    631.18179    55.110203      2204118          147  0.007193656     104.1738    1598.0316 
   73600     586.8928    48.154411      2204118          147  0.007193656    70.507217    1459.5435 
   73700     559.5095    46.026604      2204118          147  0.007193656    65.618685    1389.8452 
   73800    594.11779    48.811276      2204118          147  0.007193656    73.934487    1480.0706 
   73900    637.00273    53.102448      2204118          147  0.007193656     90.62422    1598.2588 
   74000    628.81392    49.268611      2204118          147  0.007193656     64.42449    1552.6781 
   74100    558.01631    48.937118      2204118          147  0.007193656     86.45406    1407.1465 
   74200    562.67563    50.742052      2204118          147  0.007193656    97.340878    1429.0608 
   74300      638.907    51.802454      2204118          147  0.007193656    76.704915    1588.8465 
   74400    628.85241    55.873221      2204118          147  0.007193656    109.66484    1598.0096 
   74500    583.93781    53.122418      2204118          147  0.007193656    105.09723    1487.1397 
   74600    573.98372    50.457005      2204118          147  0.007193656    89.542645    1448.0262 
   74700    604.07535    50.993647      2204118          147  0.007193656    83.565428    1513.2687 
   74800    630.09067    50.235777      2204118          147  0.007193656    69.517609     1560.793 
   74900    598.42597    48.560076      2204118          147  0.007193656    68.800474     1485.133 
   75000    563.56555    50.368812      2204118          147  0.007193656    95.016209    1428.8424 
   75100     595.9839    52.409358      2204118          147  0.007193656    98.539317    1509.0921 
   75200     639.6147    52.807586      2204118          147  0.007193656    85.698782    1599.5153 
   75300     613.8019    49.759881      2204118          147  0.007193656    72.095717    1524.8194 
   75400    558.97717    48.867459      2204118          147  0.007193656    84.421659    1407.3882 
   75500    578.60792    49.492487      2204118          147  0.007193656    81.547589    1450.9755 
   75600    632.84979    52.204654      2204118          147  0.007193656    81.252566    1579.0581 
   75700    618.08228    57.006922      2204118          147  0.007193656    122.07329    1584.9277 
   75800    599.03626    50.741444      2204118          147  0.007193656    82.207728    1499.9847 
   75900    572.48185    48.359029      2204118          147  0.007193656    74.907933    1429.8369 
[...]
  381700    612.99864    49.676627      2204118          147  0.007193656    69.831056    1520.6537 
  381800    591.72432    49.284803      2204118          147  0.007193656    75.619307    1476.0906 
  381900    589.64595    47.013124      2204118          147  0.007193656    59.691287    1455.2436 
  382000    603.22687    48.570418      2204118          147  0.007193656    66.221522    1493.9167 
  382100    628.52644    51.737522      2204118          147  0.007193656    79.767222    1567.3405 
  382200    608.29629    50.325631      2204118          147  0.007193656    75.512559    1515.2058 
  382300    578.52373    50.045092      2204118          147  0.007193656    84.244348     1453.473 
  382400    596.32922    49.204115      2204118          147  0.007193656    72.580411    1483.9505 
  382500     615.2011    46.449181      2204118          147  0.007193656    45.777051    1501.8124 
  382600    589.44504    49.826645      2204118          147  0.007193656     79.94956    1475.0264 
  382700    589.73061    51.174448      2204118          147  0.007193656    87.984975    1483.7377 
  382800    588.71743    55.659338      2204118          147  0.007193656    120.88401    1514.2388 
  382900    604.85613    55.808223      2204118          147  0.007193656    116.59466    1548.1459 
  383000    614.69134    53.197208      2204118          147  0.007193656    94.909655    1549.7385 
  383100    584.07519    50.643508      2204118          147  0.007193656    88.072079    1470.4397 
  383200    564.96486    51.540527      2204118          147  0.007193656    103.48485    1440.6229 
  383300    605.62352    50.610119      2204118          147  0.007193656    83.242653    1516.6101 
  383400    615.46189    48.950804      2204118          147  0.007193656    69.516753    1526.1693 
  383500    603.11003    44.954561      2204118          147  0.007193656    45.316313    1472.7349 
  383600    577.17805    45.521788      2204118          147  0.007193656    58.317183    1424.3609 
  383700     593.0633    48.850819      2204118          147  0.007193656    75.497267    1479.1376 
  383800    614.40642    52.112974      2204118          147  0.007193656    90.126024    1544.2805 
  383900    605.42573    52.827181      2204118          147  0.007193656    96.993006    1529.8923 
  384000    590.34934    53.867459      2204118          147  0.007193656    109.87749    1507.0946 
  384100    604.31261    51.978016      2204118          147  0.007193656    90.939084    1521.2039 
  384200    626.74969    52.588186      2204118          147  0.007193656    88.116895     1571.485 
  384300    609.16528    53.194284      2204118          147  0.007193656    100.07006      1541.82 
  384400    585.91301    48.108307      2204118          147  0.007193656    71.794648     1458.512 
  384500    582.56833    48.376167      2204118          147  0.007193656    75.628367    1454.4296 
  384600    612.81691     50.06704      2204118          147  0.007193656    76.321535     1526.714 
  384700    611.92744    53.670448      2204118          147  0.007193656    102.62854    1550.9159 
  384800    611.11238    51.132541      2204118          147  0.007193656    83.848439    1530.2067 
  384900    606.56634     47.71056      2204118          147  0.007193656    60.596211    1496.1951 
  385000    588.65637      47.1349      2204118          147  0.007193656    62.923636    1456.1339 
  385100    592.71255    47.271771      2204118          147  0.007193656     62.27427    1465.0845 
  385200    627.32857    50.618072      2204118          147  0.007193656    73.944228    1558.6824 
  385300     620.2808    53.926212      2204118          147  0.007193656    99.960842    1568.0186 
  385400    578.10827    53.773208      2204118          147  0.007193656     112.8995    1481.1449 
  385500     578.5533    54.299106      2204118          147  0.007193656     116.4052    1485.7039 
  385600    606.36274     52.18946      2204118          147  0.007193656    90.705267    1525.8223 
  385700    606.85412    52.647979      2204118          147  0.007193656    94.021787    1530.3018 
  385800    589.97279    52.069765      2204118          147  0.007193656    95.822326    1492.1482 
  385900    577.18827    48.684453      2204118          147  0.007193656    75.613121    1441.6811 
  386000    580.49688    50.210227      2204118          147  0.007193656    86.841305      1460.74 
  386100    626.70442    50.234884      2204118          147  0.007193656    71.179587    1554.4405 
  386200    611.41206    49.854517      2204118          147  0.007193656    75.240797    1522.3083 
  386300    593.65673    46.474315      2204118          147  0.007193656    57.332848    1462.3777 
  386400     587.7024    47.133561      2204118          147  0.007193656    65.250832    1456.2032 
  386500    602.43715    47.128546      2204118          147  0.007193656    59.076239    1484.9023 
  386600    595.82199    50.343979      2204118          147  0.007193656    83.844705    1494.0142 
  386700    595.42829    52.499546      2204118          147  0.007193656    97.725497    1506.9633 
  386800    596.41049    55.935998      2204118          147  0.007193656    121.37043    1532.9328 
  386900    622.99964    55.515711      2204118          147  0.007193656    109.00453    1583.4971 
  387000    637.48628    49.930281      2204118          147  0.007193656     63.64794     1572.427 
  387100    580.06474    48.981368      2204118          147  0.007193656    78.269943    1451.1458 
  387200    589.78411    48.478413      2204118          147  0.007193656    70.797393    1466.6767 
  387300    616.47557    49.523768      2204118          147  0.007193656    68.950914    1528.0026 
  387400    613.00121    49.092516      2204118          147  0.007193656      65.5382    1516.3669 
  387500    566.87544    51.126164      2204118          147  0.007193656    95.127911    1436.7878 
  387600    579.13572    55.219747      2204118          147  0.007193656    120.25811    1490.9352 
  387700    612.56162    53.183774      2204118          147  0.007193656    92.474489    1542.2628 
  387800    597.14932    53.846941      2204118          147  0.007193656    102.79068    1516.1017 
  387900    586.16386    53.787773      2204118          147  0.007193656    105.18693     1492.498 
  388000    593.65509     57.30606      2204118          147  0.007193656    128.59334    1533.6343 
  388100    637.08934    55.672568      2204118          147  0.007193656    101.94238     1609.782 
  388200     619.0864    51.102654      2204118          147  0.007193656    76.327649    1541.5585 
  388300    595.66704    50.534078      2204118          147  0.007193656     81.46198    1491.2648 
  388400    592.55663    50.733718      2204118          147  0.007193656    83.825134    1486.2664 
  388500    604.32163    50.835877      2204118          147  0.007193656    79.038571    1509.3248 
  388600     613.3828    54.311037      2204118          147  0.007193656    101.54565    1553.2775 
  388700    626.13828    54.218944      2204118          147  0.007193656    97.089702    1579.0107 
  388800    593.96621    49.636959      2204118          147  0.007193656    76.617623     1482.395 
  388900    587.12032     45.73096      2204118          147  0.007193656    51.869162    1441.4439 
  389000    593.88158    47.853833      2204118          147  0.007193656    66.326474    1471.9035 
  389100    616.63675    50.305408      2204118          147  0.007193656     76.23834    1535.6715 
  389200    613.62053    51.517103      2204118          147  0.007193656    85.616657    1537.9111 
  389300    567.12904    47.769973      2204118          147  0.007193656    73.031437    1415.2916 
  389400    570.36779    52.089979      2204118          147  0.007193656    103.72244    1453.6479 
  389500    608.51023    52.989127      2204118          147  0.007193656    96.382324    1536.5819 
  389600    611.11114    53.070307      2204118          147  0.007193656    97.225927    1543.5813 
  389700     601.1461    48.178551      2204118          147  0.007193656    65.569616    1488.3401 
  389800     570.6681    47.932359      2204118          147  0.007193656    75.463577    1426.0998 
  389900    597.88438    48.151079      2204118          147  0.007193656    66.797573    1481.8483 
  390000    615.10358    50.388961      2204118          147  0.007193656    77.781454     1533.586 
  390100    610.00705    47.657561      2204118          147  0.007193656    58.763963    1502.5062 
  390200    584.05639    48.288952      2204118          147  0.007193656    72.489744    1454.8129 
  390300    593.02198    48.254115      2204118          147  0.007193656    68.031001    1471.5736 
  390400    620.71883    52.320204      2204118          147  0.007193656    86.973455    1556.0679 
  390500    617.92039    55.883188      2204118          147  0.007193656    113.16662    1575.6378 
  390600    568.82526    54.599148      2204118          147  0.007193656    121.51975    1467.7944 
  390700    577.22262    49.697066      2204118          147  0.007193656    83.206617    1449.3559 
  390800    604.45823    48.262847      2204118          147  0.007193656    63.770874    1494.3804 
  390900    602.95509    50.550518      2204118          147  0.007193656    81.204641    1508.2565 
  391000    596.25031    53.589287      2204118          147  0.007193656     106.9998    1518.1831 
  391100    641.76192    48.538353      2204118          147  0.007193656    53.030276    1571.9288 
  391200    598.31242    50.344829      2204118          147  0.007193656    82.759775    1498.8236 
  391300    575.21748    50.315253      2204118          147  0.007193656    89.987916    1451.3915 
  391400    601.39428    51.376471      2204118          147  0.007193656    87.860719    1511.2186 
  391500    612.20434    53.867544      2204118          147  0.007193656    102.00237     1550.945 
  391600    608.87949    52.252015      2204118          147  0.007193656    91.768442     1532.842 
  391700    597.91261    46.966968      2204118          147  0.007193656    56.518112    1471.6357 
  391800    559.80743    50.493725      2204118          147  0.007193656    96.317593    1421.2492 
  391900    628.91089    52.946229      2204118          147  0.007193656    88.741311    1577.2245 
  392000    615.72519    53.266893      2204118          147  0.007193656    96.132978    1553.4087 
  392100    588.07261    49.739428      2204118          147  0.007193656    79.179162    1471.0078 
  392200    574.06339    52.364897      2204118          147  0.007193656    103.87417    1462.5463 
  392300     611.2258    54.213656      2204118          147  0.007193656    104.70331      1551.33 
  392400    622.76899    52.106756      2204118          147  0.007193656    85.644508    1559.5912 
  392500    590.26481    50.865997      2204118          147  0.007193656    88.013419    1485.0304 
  392600    588.19313    50.129711      2204118          147  0.007193656    83.717184     1475.831 
  392700     606.4758    49.006068      2204118          147  0.007193656    69.838921    1505.2235 
  392800    608.03582    48.258776      2204118          147  0.007193656    64.370451    1503.4472 
  392900     593.9755     49.82033      2204118          147  0.007193656    80.936716     1486.736 
  393000    599.12507    49.329367      2204118          147  0.007193656    75.110239    1493.0974 
  393100    604.88283    48.647628      2204118          147  0.007193656    67.792512    1499.4069 
  393200    596.04699    48.727892      2204118          147  0.007193656    71.052044    1481.7541 
  393300    567.22747    49.282296      2204118          147  0.007193656     84.82033    1427.3134 
  393400    589.36707    50.528889      2204118          147  0.007193656    86.044365    1480.9366 
  393500    613.65397    53.426009      2204118          147  0.007193656    98.716425      1551.09 
  393600    607.07446    54.238346      2204118          147  0.007193656    106.76259    1543.5641 
  393700    586.68741    52.747447      2204118          147  0.007193656    103.37838    1491.9285 
  393800    569.90048    49.565421      2204118          147  0.007193656    85.939328    1434.7588 
  393900    593.02147    50.405653      2204118          147  0.007193656     84.10484    1487.6462 
  394000    623.87234    52.457854      2204118          147  0.007193656    87.642131    1564.2002 
  394100    602.49189    53.176141      2204118          147  0.007193656     99.56138     1525.517 
  394200    581.10046     52.11206      2204118          147  0.007193656    97.855283    1473.1824 
  394300    591.67682    53.413472      2204118          147  0.007193656    102.68318    1503.0421 
  394400    635.53877    55.839998      2204118          147  0.007193656    105.18127     1609.351 
  394500    618.32539    53.246703      2204118          147  0.007193656    92.869078    1556.2988 
  394600    591.95702    51.858375      2204118          147  0.007193656    93.357878      1494.38 
  394700    592.78229    50.885436      2204118          147  0.007193656    87.692261    1490.6676 
  394800    619.96599    46.727284      2204118          147  0.007193656    48.003545    1515.3162 
  394900     587.2092    47.586095      2204118          147  0.007193656    66.277776    1456.0629 
  395000     567.8848    47.870303      2204118          147  0.007193656    74.683054    1418.7319 
  395100    604.58057    49.582897      2204118          147  0.007193656    73.402545    1504.3016 
  395200    616.21936    49.778008      2204118          147  0.007193656    68.927446    1527.3727 
  395300    589.86592    52.753584      2204118          147  0.007193656    98.765813    1494.8388 
  395400     590.7712     54.60816      2204118          147  0.007193656    110.97037    1509.1859 
  395500    638.87777    56.107356      2204118          147  0.007193656    104.68109    1616.7535 
  395600    626.37136    56.029965      2204118          147  0.007193656    108.52996    1591.0026 
  395700    596.62116    54.667127      2204118          147  0.007193656    108.86287    1520.9239 
  395800    592.34211    56.171549      2204118          147  0.007193656    122.62334    1524.5568 
  395900    620.73792    51.598141      2204118          147  0.007193656    79.153691    1548.2934 
  396000    598.77105    49.608021      2204118          147  0.007193656    73.152373    1490.3016 
  396100    573.21997     49.86537      2204118          147  0.007193656    83.912559    1440.5885 
  396200    587.85722     54.38141      2204118          147  0.007193656    111.86727    1503.1861 
  396300    607.17433    56.090453      2204118          147  0.007193656    117.71981    1554.7576 
  396400    614.63298    51.940945      2204118          147  0.007193656    84.622647    1539.3134 
  396500    582.98621    52.314772      2204118          147  0.007193656    99.838641    1479.6289 
  396600     593.3429    49.943532      2204118          147  0.007193656    79.022073    1483.3242 
  396700    635.22532    49.818953      2204118          147  0.007193656    63.488764    1566.9167 
  396800    629.26357    53.986468      2204118          147  0.007193656    96.824093    1586.1419 
  396900    579.81626    51.056062      2204118          147  0.007193656    93.011206     1465.299 
  397000    589.08861    49.499624      2204118          147  0.007193656    79.011786     1473.245 
  397100    613.72058    49.556106      2204118          147  0.007193656    71.814686     1524.346 
  397200    612.03947    49.309056      2204118          147  0.007193656    71.222425    1519.7749 
  397300    566.54821    48.231188      2204118          147  0.007193656    79.988333    1420.8738 
  397400    574.95796    47.409735      2204118          147  0.007193656    70.667979    1431.4573 
  397500    602.57519     49.14845      2204118          147  0.007193656    73.440351    1499.5931 
  397600    602.46416    50.431537      2204118          147  0.007193656    82.965367    1508.8554 
  397700    600.08616    50.324124      2204118          147  0.007193656     82.85352    1503.1153 
  397800    591.29636    50.160446      2204118          147  0.007193656    84.000973    1483.4594 
  397900    577.78252    52.497848      2204118          147  0.007193656    105.99464     1473.469 
  398000    625.40737     50.63305      2204118          147  0.007193656    74.990859     1555.182 
  398100    616.73647    50.504484      2204118          147  0.007193656    77.950297    1537.6195 
  398200    589.72792    47.875114      2204118          147  0.007193656    68.242788    1463.9891 
  398300    589.65656     48.07649      2204118          147  0.007193656    69.336494    1464.9139 
  398400    596.87744       50.785      2204118          147  0.007193656    86.312906    1498.9805 
  398500    608.31814    51.049781      2204118          147  0.007193656    83.748792    1523.4938 
  398600    606.69608    49.363443      2204118          147  0.007193656     72.08855    1507.9945 
  398700    573.11422    48.399832      2204118          147  0.007193656    77.981507    1434.4071 
  398800    541.33865    45.469124      2204118          147  0.007193656    66.859043    1348.0794 
  398900    576.72974    48.191215      2204118          147  0.007193656    73.546008    1438.5287 
  399000     605.3172    49.759053      2204118          147  0.007193656    73.928993    1506.5714 
  399100    613.04542     51.43818      2204118          147  0.007193656    82.596896    1533.5302 
  399200    595.62808    52.091205      2204118          147  0.007193656    92.754346    1502.4649 
  399300     579.7658     51.62995      2204118          147  0.007193656    94.510789    1466.6791 
  399400    605.78634    52.363538      2204118          147  0.007193656    90.303549    1524.0564 
  399500     627.6552    55.181852      2204118          147  0.007193656     103.0512    1588.5624 
  399600    599.68541    55.296948      2204118          147  0.007193656    113.85853    1533.1719 
  399700    585.62423    54.194264      2204118          147  0.007193656    112.00113     1498.035 
  399800    603.72712    50.917173      2204118          147  0.007193656    82.448645    1511.3278 
  399900    605.68262    50.210561      2204118          147  0.007193656    78.048908    1511.5562 
  400000    598.45327    49.204533      2204118          147  0.007193656    74.231862     1490.629 
  400100    577.74713    48.053891      2204118          147  0.007193656    73.423719    1440.8144 
Loop time of 28.1953 on 1 procs for 400000 steps with 795 atoms

Performance: 306.434 ns/day, 0.078 hours/ns, 14186.757 timesteps/s
93.6% CPU use with 1 MPI tasks x no OpenMP threads

MPI task timing breakdown:
Section |  min time  |  avg time  |  max time  |%varavg| %total
---------------------------------------------------------------
Pair    | 12.752     | 12.752     | 12.752     |   0.0 | 45.23
Neigh   | 4.3871     | 4.3871     | 4.3871     |   0.0 | 15.56
Comm    | 0.98554    | 0.98554    | 0.98554    |   0.0 |  3.50
Output  | 2.5735     | 2.5735     | 2.5735     |   0.0 |  9.13
Modify  | 6.769      | 6.769      | 6.769      |   0.0 | 24.01
Other   |            | 0.7277     |            |       |  2.58

Nlocal:            795 ave         795 max         795 min
Histogram: 1 0 0 0 0 0 0 0 0 0
Nghost:            132 ave         132 max         132 min
Histogram: 1 0 0 0 0 0 0 0 0 0
Neighs:           1610 ave        1610 max        1610 min
Histogram: 1 0 0 0 0 0 0 0 0 0

Total # of neighbors = 1610
Ave neighs/atom = 2.0251572
Neighbor list builds = 13086
Dangerous builds = 15

write_data graphene_single_layer_LJ_795C_after_temp_600K.data
System init for write_data ...
  generated 0 of 0 mixed pair_coeff terms from geometric mixing rule
Total wall time: 0:00:28
