# System definition
read_data graphene_single_layer_x-45_y-45_795_C.data  ### MODIFY FILE NAME ###
Reading data file ...
  orthogonal box = (-1.4464652 -1.4423034 -1.42) to (47.285152 47.149102 1.42)
  8 by 8 by 1 MPI processor grid
  reading atoms ...
  795 atoms
  reading velocities ...
  795 velocities
  read_data CPU = 0.056 seconds
pair_style lj/cut 6
pair_coeff      1 1 0.066047 3.4

# Virtual force wall to keep the cylinder shape
#region myCylinder cylinder z 0. 0. 20.3 -22.079997 505.920003 units box
#fix wall all wall/region myCylinder lj93 1.0 1.0 2.5

# Minimization
timestep 0.25
thermo 100
thermo_style custom step temp press vol lx density pe etotal
dump 2 all custom 1000 graphene_single_layer_LJ_795C_after_temp_100K.lammpstrj id type x y z ### MODIFY FILE NAME ###
min_style cg
minimize 1.0e-6 1.0e-6 100 1000
WARNING: Using 'neigh_modify every 1 delay 0 check yes' setting during minimization (src/min.cpp:187)
Generated 0 of 0 mixed pair_coeff terms from geometric mixing rule
Neighbor list info ...
  update every 1 steps, delay 0 steps, check yes
  max neighbors/atom: 10000, page size: 100000
  master list distance cutoff = 6.4
  ghost atom cutoff = 6.4
  binsize = 3.2, bins = 16 16 1
  1 neighbor lists, perpetual/occasional/extra = 1 0 0
  (1) pair lj/cut, perpetual
      attributes: half, newton on
      pair build: half/bin/atomonly/newton
      stencil: half/bin/3d
      bin: standard
Per MPI rank memory allocation (min/avg/max) = 5.47 | 5.472 | 5.472 Mbytes
   Step          Temp          Press          Volume           Lx          Density         PotEng         TotEng    
         0   923            3.5764745e+08  6724.9433      48.731617      2.3577398      8739313.6      8741498.1    
       100   923            47390520       6724.9433      48.731617      2.3577398      1146833.4      1149017.9    
Loop time of 0.0259773 on 64 procs for 100 steps with 795 atoms

96.9% CPU use with 64 MPI tasks x 1 OpenMP threads

Minimization stats:
  Stopping criterion = max iterations
  Energy initial, next-to-last, final = 
      8739313.57439336   1156380.83320826   1146833.40532139
  Force two-norm initial, final = 757147.49 28301.772
  Force max component initial, final = 127132.22 7330.8006
  Final line search alpha, max atom move = 9.6526089e-06 0.070761352
  Iterations, force evaluations = 100 123

MPI task timing breakdown:
Section |  min time  |  avg time  |  max time  |%varavg| %total
---------------------------------------------------------------
Pair    | 0.0015561  | 0.0024632  | 0.003336   |   0.8 |  9.48
Neigh   | 0.00094893 | 0.0014588  | 0.0019225  |   0.6 |  5.62
Comm    | 0.0086246  | 0.009791   | 0.011344   |   0.6 | 37.69
Output  | 7.2171e-05 | 7.5558e-05 | 9.1727e-05 |   0.0 |  0.29
Modify  | 0          | 0          | 0          |   0.0 |  0.00
Other   |            | 0.01219    |            |       | 46.92

Nlocal:        12.4219 ave          15 max           9 min
Histogram: 1 3 0 11 0 17 19 0 11 2
Nghost:        579.656 ave         611 max         547 min
Histogram: 1 5 5 9 9 13 9 7 4 2
Neighs:        790.734 ave         969 max         597 min
Histogram: 3 2 10 1 15 7 13 5 7 1

Total # of neighbors = 50607
Ave neighs/atom = 63.656604
Neighbor list builds = 37
Dangerous builds = 0
#timestep 0.25
fix 1 all nvt temp 100.0 100.0 $(100.0*dt) ### MODIFY INITIAL TEMP, FINAL TEMP ###
fix 1 all nvt temp 100.0 100.0 25 
run 400000
Generated 0 of 0 mixed pair_coeff terms from geometric mixing rule
Per MPI rank memory allocation (min/avg/max) = 4.346 | 4.347 | 4.347 Mbytes
   Step          Temp          Press          Volume           Lx          Density         PotEng         TotEng    
       100   923            47390520       6724.9433      48.731617      2.3577398      1146833.4      1149017.9    
       200   3259.9565      9354228.9      6724.9433      48.731617      2.3577398      219178.05      226893.59    
       300   1121.9703      8023426.3      6724.9433      48.731617      2.3577398      187690.77      190346.21    
       400   608.31803      7595416.1      6724.9433      48.731617      2.3577398      177496.07      178935.81    
       500   360.72433      7402886.6      6724.9433      48.731617      2.3577398      172918.96      173772.71    
       600   296.85781      7287963.1      6724.9433      48.731617      2.3577398      170154.06      170856.65    
       700   207.26166      7222334.9      6724.9433      48.731617      2.3577398      168597.1       169087.64    
       800   167.37596      7177599.1      6724.9433      48.731617      2.3577398      167526.59      167922.73    
       900   151.44179      7142751.7      6724.9433      48.731617      2.3577398      166687.65      167046.07    
      1000   87.923126      7116798.6      6724.9433      48.731617      2.3577398      166082.5       166290.59    
      1100   102.10799      7102403.4      6724.9433      48.731617      2.3577398      165727.18      165968.85    
      1200   182.16371      7067287.7      6724.9433      48.731617      2.3577398      164846.47      165277.61    
      1300   137.06578      7036434.2      6724.9433      48.731617      2.3577398      164116.54      164440.95    
      1400   159.72707      7007478        6724.9433      48.731617      2.3577398      163406.96      163785       
      1500   106.35526      6980862.6      6724.9433      48.731617      2.3577398      162781.39      163033.11    
      1600   92.809327      6964270.1      6724.9433      48.731617      2.3577398      162382.61      162602.27    
      1700   109.97337      6951434.6      6724.9433      48.731617      2.3577398      162063.24      162323.52    
      1800   150.0887       6927222.2      6724.9433      48.731617      2.3577398      161460.07      161815.29    
      1900   97.744505      6908558.6      6724.9433      48.731617      2.3577398      161029.25      161260.59    
      2000   79.361541      6897549.3      6724.9433      48.731617      2.3577398      160769.41      160957.24    
      2100   110.46594      6888959.5      6724.9433      48.731617      2.3577398      160548.13      160809.58    
      2200   86.27853       6880413.5      6724.9433      48.731617      2.3577398      160351.52      160555.72    
      2300   89.495304      6873919.5      6724.9433      48.731617      2.3577398      160193.18      160405       
      2400   144.53839      6860482.3      6724.9433      48.731617      2.3577398      159845.56      160187.65    
      2500   126.9006       6844547.7      6724.9433      48.731617      2.3577398      159465.23      159765.57    
      2600   102.30711      6829201.6      6724.9433      48.731617      2.3577398      159102.79      159344.93    
      2700   68.777204      6821364.1      6724.9433      48.731617      2.3577398      158927.02      159089.8     
      2800   54.720262      6818764.8      6724.9433      48.731617      2.3577398      158869.75      158999.26    
      2900   83.738019      6817936.6      6724.9433      48.731617      2.3577398      158837.81      159036       
      3000   128.76011      6819429.4      6724.9433      48.731617      2.3577398      158857.58      159162.32    
      3100   138.88434      6818802.3      6724.9433      48.731617      2.3577398      158837.93      159166.64    
      3200   134.34536      6808662.9      6724.9433      48.731617      2.3577398      158594.37      158912.34    
      3300   72.069215      6801947        6724.9433      48.731617      2.3577398      158454.71      158625.28    
      3400   60.273949      6798807.2      6724.9433      48.731617      2.3577398      158383.35      158526       
      3500   102.24877      6796227.7      6724.9433      48.731617      2.3577398      158305.1       158547.1     
      3600   111.89958      6797943.8      6724.9433      48.731617      2.3577398      158342.51      158607.35    
      3700   121.32317      6796470.9      6724.9433      48.731617      2.3577398      158303.6       158590.74    
      3800   106.27232      6792823.8      6724.9433      48.731617      2.3577398      158221.12      158472.64    
      3900   111.97805      6784915.9      6724.9433      48.731617      2.3577398      158026.9       158291.93    
      4000   140.41531      6773048.3      6724.9433      48.731617      2.3577398      157727.77      158060.1     
      4100   75.253993      6764715.3      6724.9433      48.731617      2.3577398      157551.02      157729.13    
      4200   64.120502      6760317.7      6724.9433      48.731617      2.3577398      157449.04      157600.8     
      4300   113.23693      6755200.9      6724.9433      48.731617      2.3577398      157305.94      157573.94    
      4400   97.852216      6754489.5      6724.9433      48.731617      2.3577398      157294.65      157526.24    
      4500   90.499278      6753315.3      6724.9433      48.731617      2.3577398      157268.91      157483.1     
      4600   86.406193      6754071.4      6724.9433      48.731617      2.3577398      157288.68      157493.18    
      4700   99.750731      6755790.6      6724.9433      48.731617      2.3577398      157325.63      157561.72    
      4800   117.8476       6757736.1      6724.9433      48.731617      2.3577398      157365.81      157644.73    
      4900   120.04903      6756974.7      6724.9433      48.731617      2.3577398      157345.49      157629.62    
      5000   95.441808      6754836.4      6724.9433      48.731617      2.3577398      157303.91      157529.8     
      5100   84.621566      6752635.9      6724.9433      48.731617      2.3577398      157255.55      157455.83    
      5200   89.252744      6752110.2      6724.9433      48.731617      2.3577398      157240.69      157451.93    
      5300   130.81228      6750065.6      6724.9433      48.731617      2.3577398      157174.07      157483.68    
      5400   121.89409      6743351.7      6724.9433      48.731617      2.3577398      157014.21      157302.7     
      5500   78.135698      6737998.6      6724.9433      48.731617      2.3577398      156901.17      157086.09    
      5600   60.029409      6736374.1      6724.9433      48.731617      2.3577398      156868.7       157010.78    
      5700   78.669285      6736804.7      6724.9433      48.731617      2.3577398      156872.1       157058.29    
      5800   118.52152      6739857.1      6724.9433      48.731617      2.3577398      156931.76      157212.27    
      5900   124.40804      6744362.2      6724.9433      48.731617      2.3577398      157039.3       157333.74    
      6000   126.40465      6743137.9      6724.9433      48.731617      2.3577398      157009.6       157308.77    
      6100   86.324523      6740251        6724.9433      48.731617      2.3577398      156954.99      157159.3     
      6200   78.545846      6737493.4      6724.9433      48.731617      2.3577398      156890.21      157076.11    
      6300   101.57366      6735131.8      6724.9433      48.731617      2.3577398      156822.07      157062.47    
      6400   103.15748      6733890.8      6724.9433      48.731617      2.3577398      156793.23      157037.38    
      6500   114.71754      6730851.5      6724.9433      48.731617      2.3577398      156714.59      156986.1     
      6600   102.0853       6726696.5      6724.9433      48.731617      2.3577398      156618.44      156860.05    
      6700   73.114284      6725356.3      6724.9433      48.731617      2.3577398      156596.15      156769.2     
      6800   77.807792      6725461.2      6724.9433      48.731617      2.3577398      156596.72      156780.87    
      6900   102.76867      6727685.1      6724.9433      48.731617      2.3577398      156641.56      156884.79    
      7000   117.88349      6731055.7      6724.9433      48.731617      2.3577398      156718.04      156997.05    
      7100   125.74933      6730969.2      6724.9433      48.731617      2.3577398      156712.59      157010.21    
      7200   89.819713      6729708.8      6724.9433      48.731617      2.3577398      156694.61      156907.2     
      7300   87.722842      6727121.9      6724.9433      48.731617      2.3577398      156634.06      156841.68    
      7400   79.789535      6727062.4      6724.9433      48.731617      2.3577398      156635.91      156824.75    
      7500   106.16067      6726666.1      6724.9433      48.731617      2.3577398      156616.01      156867.27    
      7600   103.42311      6728267.3      6724.9433      48.731617      2.3577398      156654.56      156899.34    
      7700   91.700344      6729177.4      6724.9433      48.731617      2.3577398      156681.71      156898.74    
      7800   92.391166      6729515.3      6724.9433      48.731617      2.3577398      156690.82      156909.48    
      7900   99.77563       6729959.1      6724.9433      48.731617      2.3577398      156699.01      156935.16    
      8000   106.658        6730084        6724.9433      48.731617      2.3577398      156698.97      156951.4     
      8100   110.01331      6728412.1      6724.9433      48.731617      2.3577398      156655.98      156916.36    
      8200   93.726898      6726357.9      6724.9433      48.731617      2.3577398      156612.8       156834.63    
      8300   76.499044      6725818.3      6724.9433      48.731617      2.3577398      156606.64      156787.69    
      8400   86.401176      6726628.8      6724.9433      48.731617      2.3577398      156623.16      156827.65    
      8500   112.44872      6729335.6      6724.9433      48.731617      2.3577398      156677.59      156943.73    
      8600   127.72512      6731546.4      6724.9433      48.731617      2.3577398      156725.34      157027.64    
      8700   116.51814      6730014.6      6724.9433      48.731617      2.3577398      156692.2       156967.97    
      8800   83.784302      6727983.9      6724.9433      48.731617      2.3577398      156656.99      156855.29    
      8900   81.57299       6726452.9      6724.9433      48.731617      2.3577398      156619.62      156812.69    
      9000   94.469096      6726543.2      6724.9433      48.731617      2.3577398      156616.97      156840.56    
      9100   109.6348       6728121.4      6724.9433      48.731617      2.3577398      156648.86      156908.34    
      9200   110.71006      6729485.6      6724.9433      48.731617      2.3577398      156682.24      156944.26    
      9300   102.32981      6728586.9      6724.9433      48.731617      2.3577398      156664.21      156906.4     
      9400   90.135787      6728024.6      6724.9433      48.731617      2.3577398      156655.36      156868.69    
      9500   89.066554      6728347        6724.9433      48.731617      2.3577398      156663.88      156874.68    
      9600   112.68123      6728182.2      6724.9433      48.731617      2.3577398      156650.42      156917.11    
      9700   113.98266      6728591.2      6724.9433      48.731617      2.3577398      156659.59      156929.36    
      9800   92.863704      6728269.5      6724.9433      48.731617      2.3577398      156660.19      156879.97    
      9900   85.199251      6727601.1      6724.9433      48.731617      2.3577398      156646.31      156847.95    
     10000   94.807626      6727633.6      6724.9433      48.731617      2.3577398      156643.34      156867.73    
     10100   108.87033      6728574.4      6724.9433      48.731617      2.3577398      156660.32      156917.99    
     10200   120.08944      6729086.6      6724.9433      48.731617      2.3577398      156669.11      156953.33    
     10300   111.57352      6728745.4      6724.9433      48.731617      2.3577398      156663.29      156927.36    
     10400   97.55435       6727573.4      6724.9433      48.731617      2.3577398      156639.78      156870.66    
     10500   83.098004      6727165.5      6724.9433      48.731617      2.3577398      156636.1       156832.77    
     10600   92.13693       6727095.1      6724.9433      48.731617      2.3577398      156630.59      156848.66    
     10700   103.53538      6728555.3      6724.9433      48.731617      2.3577398      156663.09      156908.13    
     10800   114.44248      6729577.6      6724.9433      48.731617      2.3577398      156682.71      156953.57    
     10900   106.29541      6729895        6724.9433      48.731617      2.3577398      156695.47      156947.05    
     11000   99.642682      6728681        6724.9433      48.731617      2.3577398      156668.42      156904.25    
     11100   90.7736        6727950.8      6724.9433      48.731617      2.3577398      156653.66      156868.5     
     11200   92.209828      6727612.1      6724.9433      48.731617      2.3577398      156645.41      156863.65    
     11300   95.377197      6728395.1      6724.9433      48.731617      2.3577398      156662.8       156888.53    
     11400   110.34313      6728929.4      6724.9433      48.731617      2.3577398      156669.26      156930.42    
     11500   106.11097      6729596.9      6724.9433      48.731617      2.3577398      156687.35      156938.49    
     11600   102.16202      6728752.6      6724.9433      48.731617      2.3577398      156668.63      156910.42    
     11700   91.694395      6728086.1      6724.9433      48.731617      2.3577398      156657.25      156874.27    
     11800   97.394291      6727336.4      6724.9433      48.731617      2.3577398      156635.98      156866.49    
     11900   103.47817      6727152.7      6724.9433      48.731617      2.3577398      156629.46      156874.37    
     12000   94.845773      6728427.3      6724.9433      48.731617      2.3577398      156663.74      156888.21    
     12100   105.33803      6728712        6724.9433      48.731617      2.3577398      156666.55      156915.86    
     12200   97.590205      6729896.8      6724.9433      48.731617      2.3577398      156697.98      156928.96    
     12300   108.117        6729063        6724.9433      48.731617      2.3577398      156674.36      156930.24    
     12400   108.79186      6727911.2      6724.9433      48.731617      2.3577398      156645.44      156902.92    
     12500   88.349684      6727714.2      6724.9433      48.731617      2.3577398      156648.48      156857.58    
     12600   92.253574      6726817        6724.9433      48.731617      2.3577398      156625.51      156843.85    
     12700   94.984259      6727809.5      6724.9433      48.731617      2.3577398      156648.52      156873.32    
     12800   111.06586      6729243.2      6724.9433      48.731617      2.3577398      156676.7       156939.57    
     12900   117.04131      6729693.2      6724.9433      48.731617      2.3577398      156685.6       156962.61    
     13000   106.01212      6728885.2      6724.9433      48.731617      2.3577398      156671.19      156922.09    
     13100   88.493215      6727640.5      6724.9433      48.731617      2.3577398      156647.31      156856.75    
     13200   87.051153      6726755.2      6724.9433      48.731617      2.3577398      156626.26      156832.29    
     13300   92.447238      6727666.8      6724.9433      48.731617      2.3577398      156646.23      156865.03    
     13400   105.33706      6729566.9      6724.9433      48.731617      2.3577398      156687.15      156936.46    
     13500   119.64276      6730106.7      6724.9433      48.731617      2.3577398      156695.18      156978.35    
     13600   106.40111      6728915        6724.9433      48.731617      2.3577398      156671.22      156923.05    
     13700   92.685091      6727164.3      6724.9433      48.731617      2.3577398      156633.91      156853.28    
     13800   87.556968      6726536.6      6724.9433      48.731617      2.3577398      156619.7       156826.92    
     13900   88.289863      6727594.4      6724.9433      48.731617      2.3577398      156646.04      156855       
     14000   106.87272      6729201.9      6724.9433      48.731617      2.3577398      156677.74      156930.68    
     14100   121.36116      6729922.1      6724.9433      48.731617      2.3577398      156688.85      156976.08    
     14200   107.31857      6729283.1      6724.9433      48.731617      2.3577398      156679.29      156933.28    
     14300   92.008021      6727816.2      6724.9433      48.731617      2.3577398      156649.24      156867       
     14400   84.968948      6727282.8      6724.9433      48.731617      2.3577398      156639.29      156840.39    
     14500   99.265359      6726974.2      6724.9433      48.731617      2.3577398      156625.74      156860.68    
     14600   98.303071      6728459.1      6724.9433      48.731617      2.3577398      156661.8       156894.46    
     14700   108.81767      6728773.5      6724.9433      48.731617      2.3577398      156665.75      156923.29    
     14800   102.37819      6729539.3      6724.9433      48.731617      2.3577398      156687         156929.3     
     14900   103.57041      6728931.3      6724.9433      48.731617      2.3577398      156671.99      156917.11    
     15000   97.679632      6728080.6      6724.9433      48.731617      2.3577398      156652.45      156883.64    
     15100   95.002304      6727067.3      6724.9433      48.731617      2.3577398      156629.55      156854.4     
     15200   90.843393      6727284.2      6724.9433      48.731617      2.3577398      156636.66      156851.66    
     15300   104.71019      6727918.1      6724.9433      48.731617      2.3577398      156645.8       156893.63    
     15400   116.45181      6728751        6724.9433      48.731617      2.3577398      156662.28      156937.89    
     15500   109.7563       6729064        6724.9433      48.731617      2.3577398      156672.15      156931.92    
     15600   91.858625      6728723.4      6724.9433      48.731617      2.3577398      156671.16      156888.57    
     15700   91.194506      6727887.6      6724.9433      48.731617      2.3577398      156651.03      156866.87    
     15800   98.216676      6727518.1      6724.9433      48.731617      2.3577398      156639.32      156871.78    
     15900   98.735224      6728104.9      6724.9433      48.731617      2.3577398      156652.98      156886.66    
     16000   106.09625      6728194.8      6724.9433      48.731617      2.3577398      156653.54      156904.65    
     16100   98.730721      6728862        6724.9433      48.731617      2.3577398      156672.35      156906.02    
     16200   99.833819      6728964.6      6724.9433      48.731617      2.3577398      156673.76      156910.05    
     16300   104.37269      6728487.3      6724.9433      48.731617      2.3577398      156660.8       156907.82    
     16400   101.91559      6727924.2      6724.9433      48.731617      2.3577398      156648.12      156889.33    
     16500   94.280773      6727598.7      6724.9433      48.731617      2.3577398      156642.38      156865.52    
     16600   89.306271      6727766.6      6724.9433      48.731617      2.3577398      156649.34      156860.71    
     16700   102.55853      6728111.5      6724.9433      48.731617      2.3577398      156651.74      156894.47    
     16800   105.31639      6729483.2      6724.9433      48.731617      2.3577398      156684.78      156934.04    
     16900   106.22406      6729363.6      6724.9433      48.731617      2.3577398      156680.96      156932.37    
     17000   95.480665      6728312.2      6724.9433      48.731617      2.3577398      156660.42      156886.4     
     17100   92.54373       6727236.6      6724.9433      48.731617      2.3577398      156634.71      156853.74    
     17200   95.395438      6727225.3      6724.9433      48.731617      2.3577398      156634.07      156859.84    
     17300   96.635073      6728601.8      6724.9433      48.731617      2.3577398      156666.81      156895.52    
     17400   104.23078      6729540.9      6724.9433      48.731617      2.3577398      156686.28      156932.97    
     17500   108.31314      6729439.5      6724.9433      48.731617      2.3577398      156681.73      156938.08    
     17600   104.73457      6728424        6724.9433      48.731617      2.3577398      156659.51      156907.39    
     17700   93.893447      6727500.5      6724.9433      48.731617      2.3577398      156640.57      156862.79    
     17800   88.148406      6727208.6      6724.9433      48.731617      2.3577398      156635.32      156843.95    
     17900   93.602934      6727698        6724.9433      48.731617      2.3577398      156645.29      156866.82    
     18000   104.71818      6728879.1      6724.9433      48.731617      2.3577398      156669.88      156917.72    
     18100   113.46087      6729617.3      6724.9433      48.731617      2.3577398      156684.52      156953.05    
     18200   113.93007      6728520.5      6724.9433      48.731617      2.3577398      156657.59      156927.23    
     18300   98.344671      6727549.4      6724.9433      48.731617      2.3577398      156640.6       156873.35    
     18400   90.506602      6726898.5      6724.9433      48.731617      2.3577398      156627.27      156841.48    
     18500   90.377825      6727249.9      6724.9433      48.731617      2.3577398      156636.07      156849.98    
     18600   92.047913      6729012        6724.9433      48.731617      2.3577398      156678.78      156896.63    
     18700   111.13372      6729810.1      6724.9433      48.731617      2.3577398      156689.35      156952.38    
     18800   114.26492      6729362.9      6724.9433      48.731617      2.3577398      156677.71      156948.15    
     18900   100.81806      6727950        6724.9433      48.731617      2.3577398      156649.24      156887.86    
     19000   86.64693       6727112.2      6724.9433      48.731617      2.3577398      156634.32      156839.4     
     19100   88.340706      6727155.7      6724.9433      48.731617      2.3577398      156634.7       156843.78    
     19200   100.42328      6728213.8      6724.9433      48.731617      2.3577398      156655.6       156893.28    
     19300   107.38694      6729444.4      6724.9433      48.731617      2.3577398      156682.44      156936.6     
     19400   112.25861      6729078.9      6724.9433      48.731617      2.3577398      156672.12      156937.81    
     19500   98.702271      6728742.3      6724.9433      48.731617      2.3577398      156668.99      156902.6     
     19600   95.099241      6727680.4      6724.9433      48.731617      2.3577398      156643.89      156868.96    
     19700   95.377541      6727151.4      6724.9433      48.731617      2.3577398      156631.08      156856.82    
     19800   93.585078      6727843.7      6724.9433      48.731617      2.3577398      156648.74      156870.23    
     19900   102.37647      6728456        6724.9433      48.731617      2.3577398      156660.49      156902.79    
     20000   106.28645      6729277.7      6724.9433      48.731617      2.3577398      156678.83      156930.38    
     20100   109.20917      6728856.1      6724.9433      48.731617      2.3577398      156668.51      156926.98    
     20200   98.985473      6728251.9      6724.9433      48.731617      2.3577398      156657.27      156891.55    
     20300   94.469006      6727444.5      6724.9433      48.731617      2.3577398      156638.92      156862.51    
     20400   95.057342      6727289.5      6724.9433      48.731617      2.3577398      156635.74      156860.71    
     20500   106.35745      6727510.3      6724.9433      48.731617      2.3577398      156636.05      156887.78    
     20600   101.80871      6729056.7      6724.9433      48.731617      2.3577398      156674.85      156915.8     
     20700   102.60093      6729374.5      6724.9433      48.731617      2.3577398      156683.07      156925.9     
     20800   105.07988      6728523.7      6724.9433      48.731617      2.3577398      156660.99      156909.69    
     20900   96.761028      6727981.5      6724.9433      48.731617      2.3577398      156651.79      156880.8     
     21000   93.251824      6727671.7      6724.9433      48.731617      2.3577398      156645.28      156865.98    
     21100   97.995231      6727836        6724.9433      48.731617      2.3577398      156647.87      156879.8     
     21200   101.71679      6728660.9      6724.9433      48.731617      2.3577398      156665.97      156906.71    
     21300   105.90382      6728894.6      6724.9433      48.731617      2.3577398      156669.66      156920.31    
     21400   106.71165      6728366        6724.9433      48.731617      2.3577398      156656.44      156909       
     21500   99.690672      6727842.9      6724.9433      48.731617      2.3577398      156646.47      156882.42    
     21600   95.381151      6727612        6724.9433      48.731617      2.3577398      156642.58      156868.32    
     21700   95.844413      6727943.9      6724.9433      48.731617      2.3577398      156650.39      156877.23    
     21800   99.546794      6728421.5      6724.9433      48.731617      2.3577398      156661.32      156896.92    
     21900   105.92666      6728701.9      6724.9433      48.731617      2.3577398      156665.57      156916.28    
     22000   101.80021      6729067.2      6724.9433      48.731617      2.3577398      156675.77      156916.71    
     22100   98.633701      6728707.6      6724.9433      48.731617      2.3577398      156667.96      156901.4     
     22200   97.052142      6727860.1      6724.9433      48.731617      2.3577398      156648.16      156877.86    
     22300   96.423084      6727400.3      6724.9433      48.731617      2.3577398      156637.38      156865.59    
     22400   95.223657      6727846.7      6724.9433      48.731617      2.3577398      156648.7       156874.07    
     22500   102.17953      6728507.7      6724.9433      48.731617      2.3577398      156661.67      156903.5     
     22600   103.56816      6729481.5      6724.9433      48.731617      2.3577398      156685.71      156930.83    
     22700   109.928        6728619.3      6724.9433      48.731617      2.3577398      156661.11      156921.29    
     22800   96.078217      6728238.2      6724.9433      48.731617      2.3577398      156657.84      156885.24    
     22900   94.706277      6727205.8      6724.9433      48.731617      2.3577398      156633.3       156857.45    
     23000   90.983315      6727685.1      6724.9433      48.731617      2.3577398      156646.45      156861.79    
     23100   101.64395      6728309.2      6724.9433      48.731617      2.3577398      156657.28      156897.85    
     23200   107.39321      6729136.9      6724.9433      48.731617      2.3577398      156673.86      156928.03    
     23300   104.7729       6729165.4      6724.9433      48.731617      2.3577398      156677.28      156925.26    
     23400   99.783855      6728400.3      6724.9433      48.731617      2.3577398      156660.76      156896.92    
     23500   91.72915       6727905        6724.9433      48.731617      2.3577398      156651.5       156868.6     
     23600   95.476173      6727386.8      6724.9433      48.731617      2.3577398      156637.13      156863.1     
     23700   100.44982      6727847.8      6724.9433      48.731617      2.3577398      156646.48      156884.22    
     23800   99.155091      6729045.1      6724.9433      48.731617      2.3577398      156676.72      156911.4     
     23900   101.5708       6729403.3      6724.9433      48.731617      2.3577398      156684.08      156924.47    
     24000   100.34399      6728805.7      6724.9433      48.731617      2.3577398      156670.93      156908.42    
     24100   98.058751      6727922        6724.9433      48.731617      2.3577398      156649.75      156881.83    
     24200   94.177089      6727574        6724.9433      48.731617      2.3577398      156643.78      156866.67    
     24300   91.980844      6728217.7      6724.9433      48.731617      2.3577398      156660.15      156877.84    
     24400   101.86956      6728678.8      6724.9433      48.731617      2.3577398      156666.69      156907.79    
     24500   106.77635      6729123.8      6724.9433      48.731617      2.3577398      156675.94      156928.66    
     24600   106.47853      6728728.2      6724.9433      48.731617      2.3577398      156666.5       156918.51    
     24700   94.880036      6728361.2      6724.9433      48.731617      2.3577398      156662.13      156886.69    
     24800   92.705886      6727714.6      6724.9433      48.731617      2.3577398      156647.47      156866.88    
     24900   98.627147      6727690.6      6724.9433      48.731617      2.3577398      156644.58      156878       
     25000   109.63843      6728138.6      6724.9433      48.731617      2.3577398      156651.15      156910.64    
     25100   104.75072      6729019        6724.9433      48.731617      2.3577398      156674.17      156922.09    
     25200   98.109188      6728889.8      6724.9433      48.731617      2.3577398      156673.56      156905.76    
     25300   97.335143      6728110.3      6724.9433      48.731617      2.3577398      156655.4       156885.77    
     25400   97.149871      6727802.6      6724.9433      48.731617      2.3577398      156648.08      156878.01    
     25500   99.392783      6728056.1      6724.9433      48.731617      2.3577398      156652.76      156888       
     25600   103.20588      6728518.7      6724.9433      48.731617      2.3577398      156662.54      156906.8     
     25700   103.79398      6728679.7      6724.9433      48.731617      2.3577398      156666.18      156911.83    
     25800   105.58552      6728098.9      6724.9433      48.731617      2.3577398      156650.82      156900.72    
     25900   96.702721      6728013.7      6724.9433      48.731617      2.3577398      156651.97      156880.85    
     26000   94.295741      6728018.6      6724.9433      48.731617      2.3577398      156653.24      156876.41    
     26100   98.358045      6728147.4      6724.9433      48.731617      2.3577398      156654.12      156886.91    
     26200   104.00063      6728444.9      6724.9433      48.731617      2.3577398      156659.73      156905.88    
     26300   105.36245      6728692.1      6724.9433      48.731617      2.3577398      156665.05      156914.42    
     26400   104.94515      6728226        6724.9433      48.731617      2.3577398      156653.72      156902.1     
     26500   98.010654      6727789.6      6724.9433      48.731617      2.3577398      156646.39      156878.35    
     26600   93.584874      6727742.6      6724.9433      48.731617      2.3577398      156646.84      156868.33    
     26700   98.589802      6728003.8      6724.9433      48.731617      2.3577398      156651.32      156884.66    
     26800   105.02692      6728547        6724.9433      48.731617      2.3577398      156661.85      156910.42    
     26900   104.58168      6728965.6      6724.9433      48.731617      2.3577398      156671.55      156919.07    
     27000   102.40766      6728232.9      6724.9433      48.731617      2.3577398      156654.49      156896.86    
     27100   95.934037      6727701.3      6724.9433      48.731617      2.3577398      156644.15      156871.2     
     27200   96.110241      6727622        6724.9433      48.731617      2.3577398      156643.12      156870.59    
     27300   104.14427      6728004.1      6724.9433      48.731617      2.3577398      156648.57      156895.05    
     27400   103.00201      6729021.4      6724.9433      48.731617      2.3577398      156673.72      156917.5     
     27500   104.80341      6728736.1      6724.9433      48.731617      2.3577398      156666.73      156914.78    
     27600   97.075386      6728359.4      6724.9433      48.731617      2.3577398      156661.16      156890.92    
     27700   95.384496      6727883.4      6724.9433      48.731617      2.3577398      156650.04      156875.79    
     27800   96.640148      6727903.9      6724.9433      48.731617      2.3577398      156649.54      156878.26    
     27900   98.718294      6728531.8      6724.9433      48.731617      2.3577398      156663.67      156897.31    
     28000   105.31223      6728674.6      6724.9433      48.731617      2.3577398      156664.58      156913.82    
     28100   108.518        6728167.1      6724.9433      48.731617      2.3577398      156651.44      156908.27    
     28200   95.065203      6728352.4      6724.9433      48.731617      2.3577398      156660.65      156885.65    
     28300   95.301576      6727853.9      6724.9433      48.731617      2.3577398      156648.72      156874.28    
     28400   99.468325      6727790.1      6724.9433      48.731617      2.3577398      156645.4       156880.81    
     28500   96.513524      6728686.8      6724.9433      48.731617      2.3577398      156668.69      156897.12    
     28600   100.51039      6729073.8      6724.9433      48.731617      2.3577398      156675.93      156913.81    
     28700   109.64254      6728350.2      6724.9433      48.731617      2.3577398      156655.33      156914.82    
     28800   99.584712      6728125.2      6724.9433      48.731617      2.3577398      156653.94      156889.63    
     28900   94.572266      6727638.8      6724.9433      48.731617      2.3577398      156644.37      156868.2     
     29000   95.118628      6727749        6724.9433      48.731617      2.3577398      156646.31      156871.43    
     29100   97.235545      6728626.5      6724.9433      48.731617      2.3577398      156665.86      156895.99    
     29200   110.88695      6728615.8      6724.9433      48.731617      2.3577398      156661.14      156923.58    
     29300   105.94525      6728937.3      6724.9433      48.731617      2.3577398      156671.47      156922.22    
     29400   101.5399       6728114.9      6724.9433      48.731617      2.3577398      156653.05      156893.37    
     29500   92.432632      6727702.1      6724.9433      48.731617      2.3577398      156646.05      156864.82    
     29600   95.471504      6727372        6724.9433      48.731617      2.3577398      156637.39      156863.35    
     29700   95.831858      6728502.5      6724.9433      48.731617      2.3577398      156664.34      156891.15    
     29800   106.54048      6728737.7      6724.9433      48.731617      2.3577398      156665.8       156917.96    
     29900   104.36143      6729114.3      6724.9433      48.731617      2.3577398      156675.62      156922.62    
     30000   101.38696      6728471.2      6724.9433      48.731617      2.3577398      156661.58      156901.54    
     30100   99.213165      6727605.1      6724.9433      48.731617      2.3577398      156641.39      156876.21    
     30200   93.740545      6727702.4      6724.9433      48.731617      2.3577398      156645.91      156867.77    
     30300   96.873956      6728046.3      6724.9433      48.731617      2.3577398      156653.16      156882.43    
     30400   104.7464       6728306.2      6724.9433      48.731617      2.3577398      156655.55      156903.46    
     30500   104.75566      6728705.6      6724.9433      48.731617      2.3577398      156665.76      156913.69    
     30600   107.75731      6728343.6      6724.9433      48.731617      2.3577398      156655.65      156910.68    
     30700   103.76793      6728052.2      6724.9433      48.731617      2.3577398      156650.3       156895.9     
     30800   95.900476      6727935        6724.9433      48.731617      2.3577398      156650.18      156877.15    
     30900   93.878305      6727938.9      6724.9433      48.731617      2.3577398      156651.64      156873.83    
     31000   99.508594      6728050.1      6724.9433      48.731617      2.3577398      156651.67      156887.18    
     31100   106.90262      6728286.3      6724.9433      48.731617      2.3577398      156654.67      156907.68    
     31200   102.31377      6728918.7      6724.9433      48.731617      2.3577398      156671.74      156913.89    
     31300   106.3485       6728194.5      6724.9433      48.731617      2.3577398      156652.19      156903.89    
     31400   97.762292      6728048.4      6724.9433      48.731617      2.3577398      156652.36      156883.74    
     31500   97.253276      6727683.1      6724.9433      48.731617      2.3577398      156644.22      156874.39    
     31600   96.128028      6728097.6      6724.9433      48.731617      2.3577398      156654.4       156881.92    
     31700   100.1812       6728552.2      6724.9433      48.731617      2.3577398      156663.9       156901.01    
     31800   101.65352      6728901.7      6724.9433      48.731617      2.3577398      156671.96      156912.55    
     31900   102.74193      6728584.6      6724.9433      48.731617      2.3577398      156663.94      156907.11    
     32000   99.232386      6728193.2      6724.9433      48.731617      2.3577398      156655.04      156889.9     
     32100   96.708618      6727805.7      6724.9433      48.731617      2.3577398      156647.07      156875.96    
     32200   90.980693      6728345.4      6724.9433      48.731617      2.3577398      156662.88      156878.21    
     32300   97.144577      6728480.1      6724.9433      48.731617      2.3577398      156663.98      156893.9     
     32400   102.6647       6728835.1      6724.9433      48.731617      2.3577398      156669.92      156912.9     
     32500   104.48138      6728775.1      6724.9433      48.731617      2.3577398      156667.63      156914.91    
     32600   101.67858      6728284.2      6724.9433      48.731617      2.3577398      156656.31      156896.96    
     32700   91.878481      6728045        6724.9433      48.731617      2.3577398      156654.74      156872.2     
     32800   93.241229      6727731        6724.9433      48.731617      2.3577398      156646.31      156866.99    
     32900   97.841325      6728188.6      6724.9433      48.731617      2.3577398      156655.65      156887.21    
     33000   105.91458      6728737.4      6724.9433      48.731617      2.3577398      156665.67      156916.34    
     33100   102.25274      6729267.3      6724.9433      48.731617      2.3577398      156680.7       156922.71    
     33200   99.673063      6728712.9      6724.9433      48.731617      2.3577398      156667.86      156903.76    
     33300   96.994579      6727694.5      6724.9433      48.731617      2.3577398      156644.01      156873.57    
     33400   97.292032      6727147.8      6724.9433      48.731617      2.3577398      156630.18      156860.45    
     33500   96.33762       6727838.9      6724.9433      48.731617      2.3577398      156648.14      156876.14    
     33600   104.64672      6728724        6724.9433      48.731617      2.3577398      156666.17      156913.84    
     33700   103.07067      6729577.8      6724.9433      48.731617      2.3577398      156687.62      156931.56    
     33800   103.03417      6728776.4      6724.9433      48.731617      2.3577398      156667.69      156911.55    
     33900   95.257876      6727960.3      6724.9433      48.731617      2.3577398      156651.67      156877.12    
     34000   92.027778      6727513.6      6724.9433      48.731617      2.3577398      156642.7       156860.51    
     34100   95.780069      6727670.4      6724.9433      48.731617      2.3577398      156644.02      156870.7     
     34200   105.09996      6728274        6724.9433      48.731617      2.3577398      156654.77      156903.51    
     34300   108.3116       6729018.9      6724.9433      48.731617      2.3577398      156672         156928.34    
     34400   103.05197      6729062.7      6724.9433      48.731617      2.3577398      156675.25      156919.15    
     34500   95.999592      6728319.6      6724.9433      48.731617      2.3577398      156659.91      156887.11    
     34600   99.859406      6727079.6      6724.9433      48.731617      2.3577398      156628.25      156864.59    
     34700   92.620288      6727729.3      6724.9433      48.731617      2.3577398      156646.38      156865.59    
     34800   99.596817      6728377.1      6724.9433      48.731617      2.3577398      156659.87      156895.59    
     34900   105.71325      6729007.4      6724.9433      48.731617      2.3577398      156672.17      156922.37    
     35000   102.29897      6729200.7      6724.9433      48.731617      2.3577398      156678.36      156920.48    
     35100   97.684642      6728447.7      6724.9433      48.731617      2.3577398      156662.54      156893.74    
     35200   92.054348      6727964.4      6724.9433      48.731617      2.3577398      156652.97      156870.84    
     35300   93.612582      6727669.2      6724.9433      48.731617      2.3577398      156645.56      156867.11    
     35400   96.158528      6728334.7      6724.9433      48.731617      2.3577398      156660.05      156887.64    
     35500   102.03204      6729082.3      6724.9433      48.731617      2.3577398      156676.35      156917.84    
     35600   106.36623      6729058        6724.9433      48.731617      2.3577398      156673.45      156925.19    
     35700   97.637693      6728557.7      6724.9433      48.731617      2.3577398      156664.82      156895.91    
     35800   94.269133      6727797.1      6724.9433      48.731617      2.3577398      156647.85      156870.96    
     35900   94.623647      6727659.8      6724.9433      48.731617      2.3577398      156643.95      156867.9     
     36000   100.21183      6728000.2      6724.9433      48.731617      2.3577398      156650.4       156887.57    
     36100   101.1152       6728783.8      6724.9433      48.731617      2.3577398      156669.08      156908.4     
     36200   102.39336      6729100.2      6724.9433      48.731617      2.3577398      156676.04      156918.38    
     36300   101.26548      6728617.2      6724.9433      48.731617      2.3577398      156665.08      156904.75    
     36400   97.967147      6728007.2      6724.9433      48.731617      2.3577398      156651.59      156883.46    
     36500   97.483817      6727647.5      6724.9433      48.731617      2.3577398      156642.41      156873.13    
     36600   93.386766      6728213.6      6724.9433      48.731617      2.3577398      156658.39      156879.42    
     36700   101.69376      6728252.5      6724.9433      48.731617      2.3577398      156656.76      156897.45    
     36800   100.63444      6728897.9      6724.9433      48.731617      2.3577398      156672.44      156910.62    
     36900   102.70845      6728759.5      6724.9433      48.731617      2.3577398      156667.89      156910.97    
     37000   99.910054      6728455.8      6724.9433      48.731617      2.3577398      156661.53      156898       
     37100   94.56051       6728258.7      6724.9433      48.731617      2.3577398      156658.6       156882.4     
     37200   93.731039      6728066.6      6724.9433      48.731617      2.3577398      156654.34      156876.18    
     37300   101.7991       6727780.4      6724.9433      48.731617      2.3577398      156644.28      156885.22    
     37400   100.0112       6728519.9      6724.9433      48.731617      2.3577398      156663.32      156900.03    
     37500   104.11854      6728553.4      6724.9433      48.731617      2.3577398      156661.9       156908.33    
     37600   102.96297      6728466.9      6724.9433      48.731617      2.3577398      156660.83      156904.52    
     37700   101.10364      6728241.7      6724.9433      48.731617      2.3577398      156655.58      156894.87    
     37800   97.220082      6728105.4      6724.9433      48.731617      2.3577398      156654.03      156884.13    
     37900   99.538402      6727826.8      6724.9433      48.731617      2.3577398      156646.42      156882       
     38000   99.783069      6727952        6724.9433      48.731617      2.3577398      156648.59      156884.76    
     38100   100.89124      6728319.4      6724.9433      48.731617      2.3577398      156658.66      156897.45    
     38200   103.04274      6728732.7      6724.9433      48.731617      2.3577398      156667.05      156910.93    
     38300   100.23992      6728884.6      6724.9433      48.731617      2.3577398      156672.53      156909.77    
     38400   100.46593      6728074.4      6724.9433      48.731617      2.3577398      156652.45      156890.23    
     38500   92.675645      6728128.5      6724.9433      48.731617      2.3577398      156656.32      156875.66    
     38600   102.73546      6727436.7      6724.9433      48.731617      2.3577398      156635.62      156878.77    
     38700   100.42467      6728220.7      6724.9433      48.731617      2.3577398      156656.09      156893.77    
     38800   103.64206      6728606.7      6724.9433      48.731617      2.3577398      156663.26      156908.56    
     38900   106.78581      6728445.3      6724.9433      48.731617      2.3577398      156658.53      156911.26    
     39000   100.51807      6728338.1      6724.9433      48.731617      2.3577398      156658.59      156896.49    
     39100   92.025644      6728246.6      6724.9433      48.731617      2.3577398      156659.76      156877.56    
     39200   93.041295      6728073.9      6724.9433      48.731617      2.3577398      156655.67      156875.88    
     39300   102.74824      6727974.6      6724.9433      48.731617      2.3577398      156648.76      156891.94    
     39400   104.61686      6728532.4      6724.9433      48.731617      2.3577398      156661.59      156909.19    
     39500   104.84747      6728569.9      6724.9433      48.731617      2.3577398      156662.01      156910.16    
     39600   96.230306      6728669.4      6724.9433      48.731617      2.3577398      156668.04      156895.79    
     39700   96.149971      6728070.1      6724.9433      48.731617      2.3577398      156653.71      156881.27    
     39800   98.335861      6727730.8      6724.9433      48.731617      2.3577398      156644.92      156877.65    
     39900   101.62613      6727882.3      6724.9433      48.731617      2.3577398      156647.29      156887.82    
     40000   100.80398      6728655.8      6724.9433      48.731617      2.3577398      156666.63      156905.21    
     40100   108.0234       6728409.6      6724.9433      48.731617      2.3577398      156657.61      156913.28    
     40200   104.38169      6728218.1      6724.9433      48.731617      2.3577398      156653.79      156900.83    
     40300   92.742924      6728327        6724.9433      48.731617      2.3577398      156661.03      156880.53    
     40400   95.508583      6727865.8      6724.9433      48.731617      2.3577398      156649.36      156875.4     
     40500   98.495957      6728204.5      6724.9433      48.731617      2.3577398      156655.55      156888.67    
     40600   98.563691      6728817.2      6724.9433      48.731617      2.3577398      156670.72      156904       
     40700   100.39582      6728825.3      6724.9433      48.731617      2.3577398      156670.65      156908.26    
     40800   99.169452      6728597.4      6724.9433      48.731617      2.3577398      156665.4       156900.11    
     40900   98.622243      6728119.9      6724.9433      48.731617      2.3577398      156653.8       156887.21    
     41000   95.341262      6728052.2      6724.9433      48.731617      2.3577398      156653.44      156879.09    
     41100   97.004449      6728168.1      6724.9433      48.731617      2.3577398      156655.59      156885.17    
     41200   101.85184      6728416.6      6724.9433      48.731617      2.3577398      156659.92      156900.98    
     41300   104.39685      6728409.8      6724.9433      48.731617      2.3577398      156659.42      156906.51    
     41400   100.1928       6728403.6      6724.9433      48.731617      2.3577398      156660.18      156897.31    
     41500   94.428091      6728520.7      6724.9433      48.731617      2.3577398      156665.55      156889.04    
     41600   99.252515      6728110.8      6724.9433      48.731617      2.3577398      156653.71      156888.61    
     41700   97.434545      6728357.4      6724.9433      48.731617      2.3577398      156660.08      156890.69    
     41800   98.04802       6728473.9      6724.9433      48.731617      2.3577398      156662.3       156894.35    
     41900   98.065477      6728594.1      6724.9433      48.731617      2.3577398      156665.15      156897.25    
     42000   98.75515       6728442.2      6724.9433      48.731617      2.3577398      156662.16      156895.89    
     42100   101.22869      6728124.9      6724.9433      48.731617      2.3577398      156653.51      156893.09    
     42200   99.260253      6728298.8      6724.9433      48.731617      2.3577398      156657.34      156892.26    
     42300   96.438996      6728508.3      6724.9433      48.731617      2.3577398      156663.99      156892.24    
     42400   100.47621      6728246.2      6724.9433      48.731617      2.3577398      156656.12      156893.92    
     42500   102.63428      6728036.9      6724.9433      48.731617      2.3577398      156650.18      156893.09    
     42600   98.832635      6728346        6724.9433      48.731617      2.3577398      156659.61      156893.52    
     42700   100.26645      6728329.4      6724.9433      48.731617      2.3577398      156657.86      156895.16    
     42800   101.60238      6728313.9      6724.9433      48.731617      2.3577398      156657.4       156897.87    
     42900   99.297204      6728304.2      6724.9433      48.731617      2.3577398      156659.11      156894.12    
     43000   101.56976      6727893.4      6724.9433      48.731617      2.3577398      156648.07      156888.46    
     43100   102.14906      6727974        6724.9433      48.731617      2.3577398      156648.56      156890.33    
     43200   100.75417      6728320.9      6724.9433      48.731617      2.3577398      156657.2       156895.66    
     43300   98.588661      6728570.4      6724.9433      48.731617      2.3577398      156664.28      156897.61    
     43400   101.4502       6728385        6724.9433      48.731617      2.3577398      156659.47      156899.58    
     43500   101.96662      6728259.7      6724.9433      48.731617      2.3577398      156655.89      156897.22    
     43600   100.42533      6728006.3      6724.9433      48.731617      2.3577398      156650.59      156888.27    
     43700   93.18304       6728300.9      6724.9433      48.731617      2.3577398      156660.61      156881.15    
     43800   96.811791      6728279.5      6724.9433      48.731617      2.3577398      156658.47      156887.6     
     43900   103.39053      6728286.9      6724.9433      48.731617      2.3577398      156656.67      156901.37    
     44000   106.75563      6728432.6      6724.9433      48.731617      2.3577398      156658.34      156911.01    
     44100   105.93747      6728322.6      6724.9433      48.731617      2.3577398      156655.56      156906.29    
     44200   102.62458      6727763.5      6724.9433      48.731617      2.3577398      156643.49      156886.38    
     44300   93.890475      6727873.4      6724.9433      48.731617      2.3577398      156649.3       156871.51    
     44400   95.272148      6727967        6724.9433      48.731617      2.3577398      156651.5       156876.99    
     44500   103.00319      6728283.5      6724.9433      48.731617      2.3577398      156656.15      156899.94    
     44600   102.88547      6729001.7      6724.9433      48.731617      2.3577398      156673.61      156917.11    
     44700   106.43891      6728636.5      6724.9433      48.731617      2.3577398      156662.9       156914.82    
     44800   102.50404      6727961.7      6724.9433      48.731617      2.3577398      156648.61      156891.21    
     44900   102.47763      6727153.6      6724.9433      48.731617      2.3577398      156629.03      156871.57    
     45000   94.222513      6727817.7      6724.9433      48.731617      2.3577398      156648.17      156871.18    
     45100   101.28116      6728086        6724.9433      48.731617      2.3577398      156652.04      156891.74    
     45200   104.8521       6728650.3      6724.9433      48.731617      2.3577398      156664.59      156912.75    
     45300   103.38344      6729043.3      6724.9433      48.731617      2.3577398      156674.23      156918.91    
     45400   102.3107       6728404.5      6724.9433      48.731617      2.3577398      156659.42      156901.57    
     45500   96.292692      6727959.8      6724.9433      48.731617      2.3577398      156650.94      156878.84    
     45600   95.178037      6727702.7      6724.9433      48.731617      2.3577398      156644.9       156870.16    
     45700   101.80045      6727608.8      6724.9433      48.731617      2.3577398      156640.4       156881.34    
     45800   106.23369      6728149.9      6724.9433      48.731617      2.3577398      156651.54      156902.97    
     45900   104.24827      6728934.3      6724.9433      48.731617      2.3577398      156671.14      156917.87    
     46000   100.4521       6728919.3      6724.9433      48.731617      2.3577398      156672.47      156910.21    
     46100   95.651938      6728400.6      6724.9433      48.731617      2.3577398      156661.8       156888.18    
     46200   93.861041      6727938.2      6724.9433      48.731617      2.3577398      156651.02      156873.17    
     46300   97.892423      6727777.5      6724.9433      48.731617      2.3577398      156645.47      156877.15    
     46400   97.509388      6728498.1      6724.9433      48.731617      2.3577398      156663.46      156894.25    
     46500   107.10267      6728459.2      6724.9433      48.731617      2.3577398      156658.48      156911.97    
     46600   106.12837      6728460.1      6724.9433      48.731617      2.3577398      156659.28      156910.46    
     46700   97.186588      6728538.2      6724.9433      48.731617      2.3577398      156664.92      156894.94    
     46800   96.816395      6727996.2      6724.9433      48.731617      2.3577398      156652.14      156881.28    
     46900   97.27649       6727837.9      6724.9433      48.731617      2.3577398      156647.35      156877.58    
     47000   97.06363       6728298.8      6724.9433      48.731617      2.3577398      156658.5       156888.23    
     47100   101.8948       6728525.5      6724.9433      48.731617      2.3577398      156662.17      156903.33    
     47200   101.10097      6728789.8      6724.9433      48.731617      2.3577398      156669.18      156908.46    
     47300   99.805434      6728663.8      6724.9433      48.731617      2.3577398      156667         156903.22    
     47400   96.094936      6728440.4      6724.9433      48.731617      2.3577398      156662.48      156889.92    
     47500   94.907478      6728053.7      6724.9433      48.731617      2.3577398      156654.08      156878.7     
     47600   94.920572      6728025.9      6724.9433      48.731617      2.3577398      156653.39      156878.05    
     47700   97.834273      6728420.4      6724.9433      48.731617      2.3577398      156661.76      156893.31    
     47800   103.02865      6728698.8      6724.9433      48.731617      2.3577398      156666.22      156910.06    
     47900   103.64583      6728823.8      6724.9433      48.731617      2.3577398      156668.57      156913.87    
     48000   102.55811      6728342.9      6724.9433      48.731617      2.3577398      156657.98      156900.71    
     48100   97.618571      6727903.5      6724.9433      48.731617      2.3577398      156649.27      156880.31    
     48200   94.93122       6727712.1      6724.9433      48.731617      2.3577398      156645.91      156870.59    
     48300   95.13597       6728095.2      6724.9433      48.731617      2.3577398      156654.65      156879.82    
     48400   100.14481      6728667.7      6724.9433      48.731617      2.3577398      156666.73      156903.75    
     48500   103.89664      6729072.6      6724.9433      48.731617      2.3577398      156675.01      156920.9     
     48600   105.96501      6728563.3      6724.9433      48.731617      2.3577398      156661.65      156912.44    
     48700   95.27882       6728417.2      6724.9433      48.731617      2.3577398      156661.84      156887.34    
     48800   93.231824      6727812.7      6724.9433      48.731617      2.3577398      156648.48      156869.13    
     48900   92.314405      6727967.8      6724.9433      48.731617      2.3577398      156652.63      156871.12    
     49000   102.25354      6728067.2      6724.9433      48.731617      2.3577398      156651.55      156893.56    
     49100   103.34126      6728954.2      6724.9433      48.731617      2.3577398      156672.12      156916.71    
     49200   108.35955      6728660.2      6724.9433      48.731617      2.3577398      156663.42      156919.89    
     49300   97.970079      6728589.2      6724.9433      48.731617      2.3577398      156666.05      156897.92    
     49400   99.271496      6727559        6724.9433      48.731617      2.3577398      156640.6       156875.56    
     49500   94.544149      6727687.5      6724.9433      48.731617      2.3577398      156644.95      156868.72    
     49600   96.648006      6728133.1      6724.9433      48.731617      2.3577398      156654.95      156883.69    
     49700   104.85103      6728555.2      6724.9433      48.731617      2.3577398      156662.1       156910.26    
     49800   106.32817      6728932.8      6724.9433      48.731617      2.3577398      156670.49      156922.15    
     49900   100.42983      6728698.1      6724.9433      48.731617      2.3577398      156667.28      156904.97    
     50000   95.407673      6727941.9      6724.9433      48.731617      2.3577398      156650.66      156876.46    
     50100   91.309953      6727793        6724.9433      48.731617      2.3577398      156648.57      156864.68    
     50200   99.280772      6727789.2      6724.9433      48.731617      2.3577398      156645.49      156880.47    
     50300   102.58678      6728762.6      6724.9433      48.731617      2.3577398      156667.7       156910.49    
     50400   104.96264      6729068        6724.9433      48.731617      2.3577398      156674.26      156922.68    
     50500   101.31361      6728702.3      6724.9433      48.731617      2.3577398      156666.75      156906.54    
     50600   96.778809      6727873.1      6724.9433      48.731617      2.3577398      156649.06      156878.11    
     50700   91.178261      6727814.6      6724.9433      48.731617      2.3577398      156649.69      156865.49    
     50800   94.602945      6728144.5      6724.9433      48.731617      2.3577398      156655.82      156879.72    
     50900   100.40791      6728894.1      6724.9433      48.731617      2.3577398      156672.19      156909.83    
     51000   104.9955       6729141.4      6724.9433      48.731617      2.3577398      156676.29      156924.79    
     51100   105.81825      6728518.1      6724.9433      48.731617      2.3577398      156660.75      156911.2     
     51200   100.13909      6727743        6724.9433      48.731617      2.3577398      156643.71      156880.72    
     51300   94.498273      6727422.2      6724.9433      48.731617      2.3577398      156639.07      156862.72    
     51400   94.004652      6727778.5      6724.9433      48.731617      2.3577398      156647.16      156869.64    
     51500   98.803074      6728620.3      6724.9433      48.731617      2.3577398      156665.72      156899.56    
     51600   105.91418      6729077.4      6724.9433      48.731617      2.3577398      156674.07      156924.75    
     51700   104.07307      6729108.1      6724.9433      48.731617      2.3577398      156675.98      156922.3     
     51800   101.38913      6728221.7      6724.9433      48.731617      2.3577398      156655.64      156895.61    
     51900   94.060797      6727653.7      6724.9433      48.731617      2.3577398      156644.69      156867.31    
     52000   93.306324      6727532.7      6724.9433      48.731617      2.3577398      156641.5       156862.33    
     52100   100.68248      6727800.4      6724.9433      48.731617      2.3577398      156645.29      156883.58    
     52200   102.91811      6728889.5      6724.9433      48.731617      2.3577398      156671.48      156915.06    
     52300   107.7159       6728977.1      6724.9433      48.731617      2.3577398      156671.44      156926.38    
     52400   100.23937      6728858        6724.9433      48.731617      2.3577398      156671.15      156908.39    
     52500   96.557686      6727993.6      6724.9433      48.731617      2.3577398      156652.1       156880.62    
     52600   96.213919      6727490.7      6724.9433      48.731617      2.3577398      156640.06      156867.78    
     52700   97.422726      6727746.7      6724.9433      48.731617      2.3577398      156645.59      156876.17    
     52800   102.74748      6728239.8      6724.9433      48.731617      2.3577398      156655.31      156898.49    
     52900   101.74701      6728995.3      6724.9433      48.731617      2.3577398      156673.58      156914.39    
     53000   103.9142       6728751.1      6724.9433      48.731617      2.3577398      156667.01      156912.95    
     53100   102.29232      6728167.8      6724.9433      48.731617      2.3577398      156653.85      156895.95    
     53200   96.830343      6727920.2      6724.9433      48.731617      2.3577398      156649.39      156878.56    
     53300   98.199399      6727703.7      6724.9433      48.731617      2.3577398      156643.71      156876.13    
     53400   96.508997      6728218.2      6724.9433      48.731617      2.3577398      156657.51      156885.93    
     53500   100.17641      6728560.4      6724.9433      48.731617      2.3577398      156664.5       156901.59    
     53600   103.76809      6728771.2      6724.9433      48.731617      2.3577398      156667.61      156913.2     
     53700   99.366205      6728812.2      6724.9433      48.731617      2.3577398      156670.89      156906.07    
     53800   95.877671      6728328.8      6724.9433      48.731617      2.3577398      156660.54      156887.46    
     53900   98.495996      6727614.7      6724.9433      48.731617      2.3577398      156642.11      156875.23    
     54000   95.924524      6728038.3      6724.9433      48.731617      2.3577398      156653.06      156880.09    
     54100   100.3394       6728415.5      6724.9433      48.731617      2.3577398      156660.25      156897.73    
     54200   100.07733      6729088.8      6724.9433      48.731617      2.3577398      156676.47      156913.33    
     54300   103.49019      6728770.3      6724.9433      48.731617      2.3577398      156667         156911.94    
     54400   101.21932      6728148.6      6724.9433      48.731617      2.3577398      156653.45      156893.01    
     54500   95.974981      6727802.6      6724.9433      48.731617      2.3577398      156647.21      156874.36    
     54600   98.020995      6727552.7      6724.9433      48.731617      2.3577398      156640.92      156872.91    
     54700   97.683344      6728311.1      6724.9433      48.731617      2.3577398      156658.94      156890.13    
     54800   105.74218      6728548.2      6724.9433      48.731617      2.3577398      156661.62      156911.89    
     54900   105.74942      6728800.3      6724.9433      48.731617      2.3577398      156667.87      156918.16    
     55000   101.23128      6728522.3      6724.9433      48.731617      2.3577398      156662.76      156902.35    
     55100   96.904576      6727849.2      6724.9433      48.731617      2.3577398      156647.93      156877.28    
     55200   96.945398      6727468.2      6724.9433      48.731617      2.3577398      156638.59      156868.04    
     55300   95.802304      6728079.6      6724.9433      48.731617      2.3577398      156654.2       156880.94    
     55400   100.2452       6728771.5      6724.9433      48.731617      2.3577398      156669.27      156906.52    
     55500   111.25489      6728546.5      6724.9433      48.731617      2.3577398      156659.42      156922.74    
     55600   108.11276      6728361.8      6724.9433      48.731617      2.3577398      156656.44      156912.31    
     55700   97.013517      6728178.1      6724.9433      48.731617      2.3577398      156655.94      156885.55    
     55800   93.584115      6727695.9      6724.9433      48.731617      2.3577398      156645.52      156867.01    
     55900   93.532797      6727867.2      6724.9433      48.731617      2.3577398      156649.45      156870.82    
     56000   103.5371       6728199.7      6724.9433      48.731617      2.3577398      156653.29      156898.34    
     56100   104.53734      6729056.5      6724.9433      48.731617      2.3577398      156674.5       156921.91    
     56200   103.78658      6728878.2      6724.9433      48.731617      2.3577398      156670.19      156915.83    
     56300   96.817984      6728322.7      6724.9433      48.731617      2.3577398      156659.61      156888.76    
     56400   90.478937      6727965.1      6724.9433      48.731617      2.3577398      156653.69      156867.83    
     56500   99.778252      6727438.1      6724.9433      48.731617      2.3577398      156637.19      156873.34    
     56600   105.38839      6727982.5      6724.9433      48.731617      2.3577398      156647.59      156897.02    
     56700   103.66267      6728880.3      6724.9433      48.731617      2.3577398      156670.14      156915.49    
     56800   107.99846      6728457        6724.9433      48.731617      2.3577398      156658.43      156914.04    
     56900   95.628372      6728511        6724.9433      48.731617      2.3577398      156664.58      156890.91    
     57000   94.926942      6727844.3      6724.9433      48.731617      2.3577398      156649.12      156873.79    
     57100   95.236385      6727886.7      6724.9433      48.731617      2.3577398      156649.47      156874.88    
     57200   103.58127      6728042.5      6724.9433      48.731617      2.3577398      156650.1       156895.25    
     57300   107.22749      6728538.3      6724.9433      48.731617      2.3577398      156660.97      156914.75    
     57400   106.61055      6728599.6      6724.9433      48.731617      2.3577398      156662.48      156914.8     
     57500   102.17736      6728076.8      6724.9433      48.731617      2.3577398      156651.56      156893.39    
     57600   96.316172      6727673.4      6724.9433      48.731617      2.3577398      156644.39      156872.34    
     57700   91.062466      6728004.4      6724.9433      48.731617      2.3577398      156654.09      156869.62    
     57800   100.72048      6728100        6724.9433      48.731617      2.3577398      156652.27      156890.65    
     57900   103.38915      6728914.3      6724.9433      48.731617      2.3577398      156671.31      156916.01    
     58000   108.71345      6728753.7      6724.9433      48.731617      2.3577398      156665.53      156922.83    
     58100   100.16491      6728532.6      6724.9433      48.731617      2.3577398      156663.55      156900.61    
     58200   98.135556      6727539.6      6724.9433      48.731617      2.3577398      156640.02      156872.28    
     58300   95.289432      6727395.3      6724.9433      48.731617      2.3577398      156637.88      156863.41    
     58400   96.488032      6728015.6      6724.9433      48.731617      2.3577398      156652.87      156881.23    
     58500   100.80285      6728906.9      6724.9433      48.731617      2.3577398      156672.38      156910.95    
     58600   108.78077      6728908.9      6724.9433      48.731617      2.3577398      156668.93      156926.39    
     58700   108.10502      6728301        6724.9433      48.731617      2.3577398      156654.68      156910.54    
     58800   98.673298      6727985.2      6724.9433      48.731617      2.3577398      156650.68      156884.22    
     58900   95.438994      6727493.7      6724.9433      48.731617      2.3577398      156640.25      156866.13    
     59000   92.77272       6727912.8      6724.9433      48.731617      2.3577398      156651.28      156870.86    
     59100   104.0757       6727990.2      6724.9433      48.731617      2.3577398      156648.86      156895.18    
     59200   105.64134      6728827        6724.9433      48.731617      2.3577398      156668.35      156918.38    
     59300   102.91792      6729162.2      6724.9433      48.731617      2.3577398      156677.65      156921.24    
     59400   97.191255      6728760.1      6724.9433      48.731617      2.3577398      156670.29      156900.32    
     59500   101.34468      6727492.8      6724.9433      48.731617      2.3577398      156637.7       156877.56    
     59600   92.752541      6727711.6      6724.9433      48.731617      2.3577398      156646.39      156865.91    
     59700   92.821849      6728140.3      6724.9433      48.731617      2.3577398      156656.7       156876.39    
     59800   104.39621      6728362.7      6724.9433      48.731617      2.3577398      156657.79      156904.88    
     59900   108.89198      6728770.6      6724.9433      48.731617      2.3577398      156665.65      156923.37    
     60000   104.74139      6728801.8      6724.9433      48.731617      2.3577398      156668.26      156916.16    
     60100   98.909241      6728200.1      6724.9433      48.731617      2.3577398      156655.41      156889.5     
     60200   94.011586      6727661.5      6724.9433      48.731617      2.3577398      156644.68      156867.19    
     60300   96.131173      6727514.8      6724.9433      48.731617      2.3577398      156640.8       156868.32    
     60400   97.155306      6728384.6      6724.9433      48.731617      2.3577398      156661.15      156891.09    
     60500   103.68428      6728992.4      6724.9433      48.731617      2.3577398      156672.79      156918.18    
     60600   104.29148      6729118.6      6724.9433      48.731617      2.3577398      156675.48      156922.32    
     60700   102.97959      6728302.8      6724.9433      48.731617      2.3577398      156656.66      156900.38    
     60800   95.93935       6727779.8      6724.9433      48.731617      2.3577398      156646.52      156873.58    
     60900   95.277524      6727474.3      6724.9433      48.731617      2.3577398      156639.88      156865.38    
     61000   96.301025      6728035        6724.9433      48.731617      2.3577398      156652.15      156880.07    
     61100   103.34181      6728645.1      6724.9433      48.731617      2.3577398      156664.77      156909.36    
     61200   108.84445      6728845.3      6724.9433      48.731617      2.3577398      156667.38      156924.99    
     61300   105.35028      6728582.8      6724.9433      48.731617      2.3577398      156662.68      156912.02    
     61400   99.998933      6727774.8      6724.9433      48.731617      2.3577398      156644.93      156881.6     
     61500   94.721545      6727507.6      6724.9433      48.731617      2.3577398      156640.73      156864.91    
     61600   96.487599      6727732.2      6724.9433      48.731617      2.3577398      156645.15      156873.51    
     61700   99.187116      6728561.1      6724.9433      48.731617      2.3577398      156664.96      156899.72    
     61800   107.54073      6728865.1      6724.9433      48.731617      2.3577398      156668.81      156923.33    
     61900   107.59051      6728703.4      6724.9433      48.731617      2.3577398      156664.58      156919.22    
     62000   104.97411      6727754.1      6724.9433      48.731617      2.3577398      156642.45      156890.9     
     62100   99.430492      6727181.2      6724.9433      48.731617      2.3577398      156631.23      156866.56    
     62200   98.17383       6727290.9      6724.9433      48.731617      2.3577398      156634.08      156866.43    
     62300   99.081513      6728310        6724.9433      48.731617      2.3577398      156658.62      156893.13    
     62400   104.3013       6728977.5      6724.9433      48.731617      2.3577398      156672.96      156919.82    
     62500   104.07166      6729009.1      6724.9433      48.731617      2.3577398      156673.84      156920.15    
     62600   98.285626      6728506.8      6724.9433      48.731617      2.3577398      156663.4       156896.02    
     62700   94.714397      6727808.2      6724.9433      48.731617      2.3577398      156648.01      156872.17    
     62800   94.649093      6727712.2      6724.9433      48.731617      2.3577398      156645.84      156869.85    
     62900   103.34496      6727814.8      6724.9433      48.731617      2.3577398      156644.45      156889.04    
     63000   103.8231       6728714.6      6724.9433      48.731617      2.3577398      156666.13      156911.85    
     63100   105.38653      6728797.9      6724.9433      48.731617      2.3577398      156667.93      156917.35    
     63200   100.85055      6728396.6      6724.9433      48.731617      2.3577398      156659.91      156898.6     
     63300   97.038521      6727903.3      6724.9433      48.731617      2.3577398      156649.55      156879.21    
     63400   92.449446      6728045        6724.9433      48.731617      2.3577398      156655.04      156873.85    
     63500   98.548149      6728123.7      6724.9433      48.731617      2.3577398      156654.19      156887.43    
     63600   105.65918      6728394.3      6724.9433      48.731617      2.3577398      156658.61      156908.68    
     63700   101.07198      6729044.7      6724.9433      48.731617      2.3577398      156674.99      156914.21    
     63800   102.24669      6728331.7      6724.9433      48.731617      2.3577398      156657.38      156899.38    
     63900   95.513208      6727976.8      6724.9433      48.731617      2.3577398      156651.55      156877.61    
     64000   95.08109       6727764.1      6724.9433      48.731617      2.3577398      156646.77      156871.81    
     64100   96.703746      6728335.5      6724.9433      48.731617      2.3577398      156659.53      156888.4     
     64200   102.43756      6728757.5      6724.9433      48.731617      2.3577398      156667.92      156910.37    
     64300   106.23386      6728804.1      6724.9433      48.731617      2.3577398      156667.29      156918.72    
     64400   99.789517      6728523.6      6724.9433      48.731617      2.3577398      156662.92      156899.1     
     64500   97.498122      6727724        6724.9433      48.731617      2.3577398      156645.14      156875.89    
     64600   91.888481      6727917        6724.9433      48.731617      2.3577398      156651.99      156869.47    
     64700   98.617606      6728017.6      6724.9433      48.731617      2.3577398      156651.48      156884.88    
     64800   100.32412      6728843.8      6724.9433      48.731617      2.3577398      156671.19      156908.63    
     64900   103.66717      6729067.3      6724.9433      48.731617      2.3577398      156674.83      156920.19    
     65000   107.29063      6728282.2      6724.9433      48.731617      2.3577398      156654.27      156908.2     
     65100   98.864787      6727959.4      6724.9433      48.731617      2.3577398      156650.14      156884.13    
     65200   95.550533      6727599.5      6724.9433      48.731617      2.3577398      156642.12      156868.26    
[...]
    384300   98.603859      6728066.1      6724.9433      48.731617      2.3577398      156652.41      156885.79    
    384400   98.64028       6728225.1      6724.9433      48.731617      2.3577398      156656.7       156890.16    
    384500   101.54799      6728697.1      6724.9433      48.731617      2.3577398      156667.43      156907.77    
    384600   103.06876      6728708.3      6724.9433      48.731617      2.3577398      156666.47      156910.41    
    384700   97.891799      6728740.1      6724.9433      48.731617      2.3577398      156669.46      156901.15    
    384800   104.39595      6727947.8      6724.9433      48.731617      2.3577398      156647.88      156894.96    
    384900   100.58636      6728111.8      6724.9433      48.731617      2.3577398      156653.22      156891.28    
    385000   101.78519      6728032.2      6724.9433      48.731617      2.3577398      156650.05      156890.95    
    385100   99.967843      6728474.2      6724.9433      48.731617      2.3577398      156661.72      156898.32    
    385200   100.86626      6728897        6724.9433      48.731617      2.3577398      156671.83      156910.55    
    385300   105.81369      6728356.8      6724.9433      48.731617      2.3577398      156656.49      156906.93    
    385400   100.63289      6728101.5      6724.9433      48.731617      2.3577398      156652.69      156890.86    
    385500   99.04543       6728109.4      6724.9433      48.731617      2.3577398      156653.35      156887.77    
    385600   95.985436      6728459.6      6724.9433      48.731617      2.3577398      156662.89      156890.06    
    385700   100.23849      6728504.2      6724.9433      48.731617      2.3577398      156662.99      156900.23    
    385800   101.82327      6729031        6724.9433      48.731617      2.3577398      156674.7       156915.7     
    385900   104.2912       6728654.8      6724.9433      48.731617      2.3577398      156664.75      156911.58    
    386000   101.22204      6728135.7      6724.9433      48.731617      2.3577398      156654.05      156893.62    
    386100   100.34508      6728121        6724.9433      48.731617      2.3577398      156653.63      156891.12    
    386200   98.701108      6728318.9      6724.9433      48.731617      2.3577398      156658.59      156892.19    
    386300   101.30042      6728259.3      6724.9433      48.731617      2.3577398      156656.26      156896.01    
    386400   97.945105      6728696.3      6724.9433      48.731617      2.3577398      156668.3       156900.12    
    386500   101.7399       6728520.6      6724.9433      48.731617      2.3577398      156662.76      156903.56    
    386600   95.734723      6728727.9      6724.9433      48.731617      2.3577398      156669.7       156896.28    
    386700   98.12246       6727987.6      6724.9433      48.731617      2.3577398      156651.01      156883.24    
    386800   102.63985      6727618.6      6724.9433      48.731617      2.3577398      156640.37      156883.29    
    386900   99.056827      6728389.5      6724.9433      48.731617      2.3577398      156660.34      156894.78    
    387000   105.69875      6728289.2      6724.9433      48.731617      2.3577398      156655.43      156905.6     
    387100   107.08838      6728126.7      6724.9433      48.731617      2.3577398      156650.34      156903.79    
    387200   100.94844      6728320        6724.9433      48.731617      2.3577398      156658.05      156896.97    
    387300   94.378058      6728521        6724.9433      48.731617      2.3577398      156665.97      156889.34    
    387400   96.827768      6728032.2      6724.9433      48.731617      2.3577398      156652.84      156882.01    
    387500   98.384221      6727957.5      6724.9433      48.731617      2.3577398      156650.42      156883.27    
    387600   100.24884      6728533.7      6724.9433      48.731617      2.3577398      156663.57      156900.83    
    387700   103.33605      6728504.4      6724.9433      48.731617      2.3577398      156661.66      156906.23    
    387800   101.63028      6728339.5      6724.9433      48.731617      2.3577398      156658.12      156898.66    
    387900   97.419862      6728146.5      6724.9433      48.731617      2.3577398      156654.81      156885.38    
    388000   98.429177      6728027.1      6724.9433      48.731617      2.3577398      156651.46      156884.42    
    388100   100.00012      6728074.6      6724.9433      48.731617      2.3577398      156652.66      156889.34    
    388200   99.256603      6728301.5      6724.9433      48.731617      2.3577398      156658         156892.91    
    388300   101.50685      6728261.8      6724.9433      48.731617      2.3577398      156656.05      156896.29    
    388400   99.622242      6728514.8      6724.9433      48.731617      2.3577398      156663.37      156899.15    
    388500   103.24224      6728183.8      6724.9433      48.731617      2.3577398      156653.72      156898.07    
    388600   96.417504      6728468.2      6724.9433      48.731617      2.3577398      156662.79      156890.99    
    388700   95.353277      6728271.6      6724.9433      48.731617      2.3577398      156659.13      156884.81    
    388800   97.45455       6728285.9      6724.9433      48.731617      2.3577398      156658.56      156889.22    
    388900   104.55718      6728223.4      6724.9433      48.731617      2.3577398      156654.32      156901.78    
    389000   101.3148       6728773.8      6724.9433      48.731617      2.3577398      156669.14      156908.93    
    389100   106.09184      6728074.7      6724.9433      48.731617      2.3577398      156649.57      156900.67    
    389200   100.78134      6727730.7      6724.9433      48.731617      2.3577398      156643.62      156882.15    
    389300   99.34204       6727911.1      6724.9433      48.731617      2.3577398      156648.43      156883.55    
    389400   102.45651      6728105.6      6724.9433      48.731617      2.3577398      156652.21      156894.7     
    389500   104.14083      6728359.1      6724.9433      48.731617      2.3577398      156657.26      156903.73    
    389600   100.33404      6728573.4      6724.9433      48.731617      2.3577398      156664.06      156901.52    
    389700   95.3801        6728571.1      6724.9433      48.731617      2.3577398      156666.57      156892.32    
    389800   102.09864      6727940.7      6724.9433      48.731617      2.3577398      156647.84      156889.48    
    389900   96.728629      6728400        6724.9433      48.731617      2.3577398      156661.95      156890.89    
    390000   102.45218      6728157.4      6724.9433      48.731617      2.3577398      156653.35      156895.83    
    390100   100.83815      6728465.8      6724.9433      48.731617      2.3577398      156661.52      156900.18    
    390200   98.469829      6728756        6724.9433      48.731617      2.3577398      156669.94      156902.99    
    390300   97.265682      6728612.1      6724.9433      48.731617      2.3577398      156666.57      156896.77    
    390400   97.396314      6728082.4      6724.9433      48.731617      2.3577398      156653.25      156883.77    
    390500   99.499414      6727798.3      6724.9433      48.731617      2.3577398      156646.03      156881.53    
    390600   99.730449      6728291.1      6724.9433      48.731617      2.3577398      156657.73      156893.76    
    390700   100.17269      6728693.1      6724.9433      48.731617      2.3577398      156667.58      156904.66    
    390800   103.56777      6728340.4      6724.9433      48.731617      2.3577398      156657         156902.12    
    390900   97.777678      6728412.1      6724.9433      48.731617      2.3577398      156661.48      156892.9     
    391000   97.955081      6728167.1      6724.9433      48.731617      2.3577398      156655.29      156887.13    
    391100   97.266235      6728283.5      6724.9433      48.731617      2.3577398      156658.37      156888.58    
    391200   104.34744      6728460.1      6724.9433      48.731617      2.3577398      156660.02      156906.98    
    391300   105.40773      6728578        6724.9433      48.731617      2.3577398      156662.65      156912.12    
    391400   100.87453      6728430        6724.9433      48.731617      2.3577398      156660.73      156899.48    
    391500   99.726422      6728144.2      6724.9433      48.731617      2.3577398      156654.37      156890.4     
    391600   99.980456      6728046.9      6724.9433      48.731617      2.3577398      156651.77      156888.4     
    391700   97.746268      6728348.5      6724.9433      48.731617      2.3577398      156659.91      156891.25    
    391800   100.54371      6728689.1      6724.9433      48.731617      2.3577398      156666.91      156904.87    
    391900   103.5364       6728978.9      6724.9433      48.731617      2.3577398      156672.98      156918.03    
    392000   104.09624      6728626.1      6724.9433      48.731617      2.3577398      156663.6       156909.97    
    392100   102.04547      6728377        6724.9433      48.731617      2.3577398      156659.08      156900.6     
    392200   98.550767      6728295.2      6724.9433      48.731617      2.3577398      156658.6       156891.84    
    392300   97.385455      6728184.6      6724.9433      48.731617      2.3577398      156655.99      156886.47    
    392400   95.180597      6728406.9      6724.9433      48.731617      2.3577398      156662.42      156887.69    
    392500   102.35293      6728521.7      6724.9433      48.731617      2.3577398      156661.98      156904.23    
    392600   101.44051      6728803.2      6724.9433      48.731617      2.3577398      156669.9       156909.99    
    392700   100.22879      6728495        6724.9433      48.731617      2.3577398      156662.02      156899.24    
    392800   101.87083      6727904.9      6724.9433      48.731617      2.3577398      156647.91      156889.02    
    392900   103.2949       6727770        6724.9433      48.731617      2.3577398      156643.71      156888.18    
    393000   99.732532      6728211.4      6724.9433      48.731617      2.3577398      156656.09      156892.13    
    393100   99.957155      6728516.4      6724.9433      48.731617      2.3577398      156663.14      156899.72    
    393200   103.01521      6728880.1      6724.9433      48.731617      2.3577398      156670.5       156914.31    
    393300   107.14989      6728996.5      6724.9433      48.731617      2.3577398      156671.86      156925.46    
    393400   105.25295      6728464.1      6724.9433      48.731617      2.3577398      156659.77      156908.88    
    393500   97.749663      6728661.8      6724.9433      48.731617      2.3577398      156667.2       156898.55    
    393600   101.87269      6727948.9      6724.9433      48.731617      2.3577398      156649         156890.11    
    393700   97.063653      6728157.7      6724.9433      48.731617      2.3577398      156655.54      156885.27    
    393800   96.21528       6728382        6724.9433      48.731617      2.3577398      156661.49      156889.21    
    393900   100.03216      6728756.6      6724.9433      48.731617      2.3577398      156668.72      156905.47    
    394000   104.25025      6728548.6      6724.9433      48.731617      2.3577398      156662.21      156908.94    
    394100   100.25337      6728484.3      6724.9433      48.731617      2.3577398      156662.18      156899.46    
    394200   99.319671      6728247.2      6724.9433      48.731617      2.3577398      156656.24      156891.31    
    394300   103.05074      6727931        6724.9433      48.731617      2.3577398      156647.69      156891.59    
    394400   104.30835      6727885.8      6724.9433      48.731617      2.3577398      156646.04      156892.92    
    394500   103.26347      6728177.4      6724.9433      48.731617      2.3577398      156653.93      156898.33    
    394600   103.11326      6728602.4      6724.9433      48.731617      2.3577398      156663.76      156907.81    
    394700   107.27748      6728391.8      6724.9433      48.731617      2.3577398      156657.18      156911.08    
    394800   101.0842       6728216.2      6724.9433      48.731617      2.3577398      156655.04      156894.28    
    394900   98.039393      6728098.8      6724.9433      48.731617      2.3577398      156653.73      156885.76    
    395000   101.62609      6727910.7      6724.9433      48.731617      2.3577398      156647.56      156888.09    
    395100   103.53378      6728170.3      6724.9433      48.731617      2.3577398      156653.48      156898.52    
    395200   105.46783      6728453.1      6724.9433      48.731617      2.3577398      156659.18      156908.8     
    395300   103.72888      6728948        6724.9433      48.731617      2.3577398      156672.34      156917.84    
    395400   101.99237      6728941        6724.9433      48.731617      2.3577398      156672.69      156914.09    
    395500   103.78391      6728079.8      6724.9433      48.731617      2.3577398      156651.31      156896.94    
    395600   101.3506       6727923.4      6724.9433      48.731617      2.3577398      156647.92      156887.79    
    395700   101.10086      6727858.5      6724.9433      48.731617      2.3577398      156647         156886.28    
    395800   101.8834       6728184.7      6724.9433      48.731617      2.3577398      156654.03      156895.16    
    395900   101.67419      6728773.3      6724.9433      48.731617      2.3577398      156668.76      156909.39    
    396000   102.15585      6728709        6724.9433      48.731617      2.3577398      156667.06      156908.84    
    396100   101.35024      6728123.2      6724.9433      48.731617      2.3577398      156653.01      156892.88    
    396200   103.86824      6727768.4      6724.9433      48.731617      2.3577398      156643.36      156889.19    
    396300   102.0963       6728028        6724.9433      48.731617      2.3577398      156650.5       156892.13    
    396400   102.17288      6728265.9      6724.9433      48.731617      2.3577398      156656.09      156897.91    
    396500   100.89403      6728555.7      6724.9433      48.731617      2.3577398      156663.79      156902.58    
    396600   102.00163      6728530.9      6724.9433      48.731617      2.3577398      156662.62      156904.03    
    396700   98.8853        6728336.3      6724.9433      48.731617      2.3577398      156658.84      156892.88    
    396800   96.20174       6728081        6724.9433      48.731617      2.3577398      156654.54      156882.22    
    396900   99.546575      6727898.9      6724.9433      48.731617      2.3577398      156648.1       156883.7     
    397000   104.54883      6728127.8      6724.9433      48.731617      2.3577398      156651.58      156899.02    
    397100   101.4944       6728570.9      6724.9433      48.731617      2.3577398      156664.1       156904.31    
    397200   97.900636      6728673.7      6724.9433      48.731617      2.3577398      156667.46      156899.17    
    397300   101.30237      6728095.9      6724.9433      48.731617      2.3577398      156652.61      156892.37    
    397400   99.365012      6728002.1      6724.9433      48.731617      2.3577398      156650.62      156885.8     
    397500   93.933709      6728169.8      6724.9433      48.731617      2.3577398      156656.95      156879.27    
    397600   97.663606      6727813.5      6724.9433      48.731617      2.3577398      156646.83      156877.98    
    397700   94.408991      6728665.3      6724.9433      48.731617      2.3577398      156668.53      156891.97    
    397800   102.5723       6728396.2      6724.9433      48.731617      2.3577398      156659.23      156901.99    
    397900   99.609975      6728577.1      6724.9433      48.731617      2.3577398      156664.93      156900.68    
    398000   100.25012      6728066.3      6724.9433      48.731617      2.3577398      156652.3       156889.57    
    398100   95.277008      6727891        6724.9433      48.731617      2.3577398      156649.96      156875.46    
    398200   95.641776      6727963.9      6724.9433      48.731617      2.3577398      156651.61      156877.97    
    398300   98.414607      6728047.3      6724.9433      48.731617      2.3577398      156652.67      156885.59    
    398400   100.99904      6728185.5      6724.9433      48.731617      2.3577398      156654.64      156893.68    
    398500   103.31316      6728261.2      6724.9433      48.731617      2.3577398      156655.44      156899.96    
    398600   105.26303      6728276.1      6724.9433      48.731617      2.3577398      156655.2       156904.33    
    398700   102.2534       6728214.9      6724.9433      48.731617      2.3577398      156654.99      156897       
    398800   96.096928      6728137.2      6724.9433      48.731617      2.3577398      156655.44      156882.88    
    398900   97.474509      6728049.6      6724.9433      48.731617      2.3577398      156652.64      156883.34    
    399000   100.74866      6728301.4      6724.9433      48.731617      2.3577398      156657.52      156895.97    
    399100   102.91869      6728455.5      6724.9433      48.731617      2.3577398      156660.69      156904.27    
    399200   102.00644      6728413.2      6724.9433      48.731617      2.3577398      156659.6       156901.02    
    399300   103.00535      6728147.2      6724.9433      48.731617      2.3577398      156652.85      156896.64    
    399400   98.291683      6728319.4      6724.9433      48.731617      2.3577398      156658.7       156891.34    
    399500   96.230414      6728425.9      6724.9433      48.731617      2.3577398      156662.22      156889.98    
    399600   99.768492      6728541.2      6724.9433      48.731617      2.3577398      156663.92      156900.05    
    399700   107.15332      6728635.6      6724.9433      48.731617      2.3577398      156663.1       156916.71    
    399800   100.61426      6728793.3      6724.9433      48.731617      2.3577398      156669.35      156907.48    
    399900   100.63408      6728207.9      6724.9433      48.731617      2.3577398      156656.09      156894.26    
    400000   97.052246      6728362.8      6724.9433      48.731617      2.3577398      156659.99      156889.69    
    400100   98.750572      6728210.9      6724.9433      48.731617      2.3577398      156656.4       156890.11    
Loop time of 23.8341 on 64 procs for 400000 steps with 795 atoms

Performance: 362.506 ns/day, 0.066 hours/ns, 16782.698 timesteps/s
99.7% CPU use with 64 MPI tasks x 1 OpenMP threads

MPI task timing breakdown:
Section |  min time  |  avg time  |  max time  |%varavg| %total
---------------------------------------------------------------
Pair    | 1.934      | 2.7019     | 3.5345     |  20.7 | 11.34
Neigh   | 0.0073818  | 0.012744   | 0.016228   |   1.7 |  0.05
Comm    | 13.505     | 15.003     | 16.703     |  18.8 | 62.95
Output  | 0.31204    | 0.31624    | 0.35194    |   0.8 |  1.33
Modify  | 3.6847     | 5.2775     | 6.4417     |  29.3 | 22.14
Other   |            | 0.5229     |            |       |  2.19

Nlocal:        12.4219 ave          16 max           9 min
Histogram: 2 2 9 0 25 12 0 11 0 3
Nghost:        646.047 ave         690 max         617 min
Histogram: 4 6 10 14 12 8 6 2 1 1
Neighs:        828.375 ave        1119 max         593 min
Histogram: 2 3 8 19 12 5 9 2 1 3

Total # of neighbors = 53016
Ave neighs/atom = 66.686792
Neighbor list builds = 339
Dangerous builds = 12

write_data graphene_single_layer_LJ_795C_after_temp_100K.data ### MODIFY FILE NAME ###
System init for write_data ...
Generated 0 of 0 mixed pair_coeff terms from geometric mixing rule
Total wall time: 0:00:23
