# System definition
read_data graphene_single_layer_x-45_y-45_795_C.data
Reading data file ...
  orthogonal box = (-51 -51 -51) to (96 96 51)
  1 by 1 by 1 MPI processor grid
  reading atoms ...
  795 atoms
  read_data CPU = 0.012 seconds
pair_style lj/cut 6
pair_coeff      1 1 0.066047 3.4

# Virtual force wall to keep the cylinder shape
#region myCylinder cylinder z 0. 0. 20.3 -22.079997 505.920003 units box
#fix wall all wall/region myCylinder lj93 1.0 1.0 2.5

# Minimization
timestep 0.25
thermo 100
thermo_style custom step temp press vol lx density pe etotal
dump 2 all custom 1000 graphene_single_layer_LJ_795C_after_temp_1300K.lammpstrj id type x y z
min_style cg
minimize 1.0e-6 1.0e-6 100 1000
WARNING: Using 'neigh_modify every 1 delay 0 check yes' setting during minimization (../min.cpp:187)
  generated 0 of 0 mixed pair_coeff terms from geometric mixing rule
Neighbor list info ...
  update every 1 steps, delay 0 steps, check yes
  max neighbors/atom: 10000, page size: 100000
  master list distance cutoff = 6.4
  ghost atom cutoff = 6.4
  binsize = 3.2, bins = 46 46 32
  1 neighbor lists, perpetual/occasional/extra = 1 0 0
  (1) pair lj/cut, perpetual
      attributes: half, newton on
      pair build: half/bin/atomonly/newton
      stencil: half/bin/3d
      bin: standard
Per MPI rank memory allocation (min/avg/max) = 5.96 | 5.96 | 5.96 Mbytes
Step Temp Press Volume Lx Density PotEng TotEng 
       0            0    1335313.5      2204118          147  0.007193656     10699602     10699602 
     100            0     61841.43      2204118          147  0.007193656    488621.59    488621.59 
Loop time of 0.0611839 on 1 procs for 100 steps with 795 atoms

100.0% CPU use with 1 MPI tasks x no OpenMP threads

Minimization stats:
  Stopping criterion = max iterations
  Energy initial, next-to-last, final = 
      10699602.3573369   495470.853828546   488621.590421788
  Force two-norm initial, final = 694694.42 29375.63
  Force max component initial, final = 79169.705 9280.0147
  Final line search alpha, max atom move = 3.8811533e-05 0.36017159
  Iterations, force evaluations = 100 117

MPI task timing breakdown:
Section |  min time  |  avg time  |  max time  |%varavg| %total
---------------------------------------------------------------
Pair    | 0.039218   | 0.039218   | 0.039218   |   0.0 | 64.10
Neigh   | 0.016847   | 0.016847   | 0.016847   |   0.0 | 27.53
Comm    | 0.0003746  | 0.0003746  | 0.0003746  |   0.0 |  0.61
Output  | 0.0002445  | 0.0002445  | 0.0002445  |   0.0 |  0.40
Modify  | 0          | 0          | 0          |   0.0 |  0.00
Other   |            | 0.0045     |            |       |  7.35

Nlocal:            795 ave         795 max         795 min
Histogram: 1 0 0 0 0 0 0 0 0 0
Nghost:              0 ave           0 max           0 min
Histogram: 1 0 0 0 0 0 0 0 0 0
Neighs:          13073 ave       13073 max       13073 min
Histogram: 1 0 0 0 0 0 0 0 0 0

Total # of neighbors = 13073
Ave neighs/atom = 16.444025
Neighbor list builds = 35
Dangerous builds = 0
#timestep 0.25
fix 1 all nvt temp 1300.0 1300.0 $(100.0*dt)
fix 1 all nvt temp 1300.0 1300.0 25
run 400000
  generated 0 of 0 mixed pair_coeff terms from geometric mixing rule
Per MPI rank memory allocation (min/avg/max) = 4.835 | 4.835 | 4.835 Mbytes
Step Temp Press Volume Lx Density PotEng TotEng 
     100            0     61841.43      2204118          147  0.007193656    488621.59    488621.59 
     200    34987.125     20245.26      2204118          147  0.007193656     144195.2    227001.44 
     300    10705.724    8524.3895      2204118          147  0.007193656    61154.572    86492.485 
     400    5132.9647     5126.803      2204118          147  0.007193656    36712.595    48861.107 
     500    3197.8814    3573.6428      2204118          147  0.007193656     25379.93    32948.558 
     600     2312.598    2678.7122      2204118          147  0.007193656    18800.218     24273.59 
     700     1837.416    2093.5973      2204118          147  0.007193656    14484.138    18832.867 
     800    1558.6901    1683.4062      2204118          147  0.007193656    11456.438    15145.489 
     900    1398.6448    1378.9525      2204118          147  0.007193656    9205.5018    12515.763 
    1000    1314.7018    1144.7914      2204118          147  0.007193656    7470.7695    10582.357 
    1100    1282.9135    958.04318      2204118          147  0.007193656    6083.3346    9119.6871 
    1200    1276.6561    806.39181      2204118          147  0.007193656    4957.6299    7979.1725 
    1300    1277.6494    681.85424      2204118          147  0.007193656    4038.2987    7062.1922 
    1400    1277.0183    579.52164      2204118          147  0.007193656    3290.2888    6312.6886 
    1500    1279.2177    494.68651      2204118          147  0.007193656    2675.1187    5702.7242 
    1600    1284.5823    423.66865      2204118          147  0.007193656    2164.1296    5204.4318 
    1700    1286.9367    364.22835      2204118          147  0.007193656    1742.2274    4788.1018 
    1800    1286.5627    314.50328      2204118          147  0.007193656    1394.5709    4439.5602 
    1900    1287.7251     273.1057      2204118          147  0.007193656    1108.8757    4156.6161 
    2000    1291.5389    238.71652      2204118          147  0.007193656    874.59888    3931.3655 
    2100    1294.4642    209.95782      2204118          147  0.007193656    681.91341    3745.6037 
    2200    1294.2321     185.8282      2204118          147  0.007193656    524.17561    3587.3166 
    2300     1293.958    165.44285      2204118          147  0.007193656    393.32229    3455.8145 
    2400     1295.496    148.34023      2204118          147  0.007193656    285.21511    3351.3474 
    2500    1297.7626    133.92457      2204118          147  0.007193656    196.11826    3267.6151 
    2600    1297.7391    121.78731      2204118          147  0.007193656    124.08086     3195.522 
    2700    1296.6552    111.54901      2204118          147  0.007193656    65.662666    3134.5384 
    2800    1297.2433    103.02443      2204118          147  0.007193656    18.737396    3089.0051 
    2900    1299.1494    95.909944      2204118          147  0.007193656   -19.124892    3055.6542 
    3000    1299.7426    89.882841      2204118          147  0.007193656   -49.086121    3027.0967 
    3100    1298.5096    84.747842      2204118          147  0.007193656    -72.34345    3000.9214 
    3200     1297.907    80.465911      2204118          147  0.007193656   -90.257362    2981.5812 
    3300    1299.2552    76.953915      2204118          147  0.007193656   -104.13414    2970.8953 
    3400    1300.5577    73.998142      2204118          147  0.007193656   -114.83075    2963.2814 
    3500     1299.849    71.399068      2204118          147  0.007193656   -123.15626    2953.2785 
    3600    1298.5116    69.170719      2204118          147  0.007193656   -129.27654     2943.993 
    3700     1298.951    67.371257      2204118          147  0.007193656   -133.57673    2940.7327 
    3800    1300.5514    65.934914      2204118          147  0.007193656   -136.13004    2941.9671 
    3900    1300.7183    64.680038      2204118          147  0.007193656   -137.40938    2941.0829 
    4000    1299.2605    63.567067      2204118          147  0.007193656   -137.53731    2937.5046 
    4100    1298.7232    62.684924      2204118          147  0.007193656    -136.7505    2937.0198 
    4200    1300.0888    62.047927      2204118          147  0.007193656   -135.27954    2941.7227 
    4300    1301.1131    61.522839      2204118          147  0.007193656   -133.24219    2946.1843 
    4400    1300.1061     61.00786      2204118          147  0.007193656    -130.7589    2946.2843 
    4500    1298.7981    60.571845      2204118          147  0.007193656   -127.94377    2946.0037 
    4600    1299.4246    60.311953      2204118          147  0.007193656   -124.86345    2950.5668 
    4700    1300.9571    60.166181      2204118          147  0.007193656   -121.57611    2957.4813 
    4800    1300.8288    59.994171      2204118          147  0.007193656   -118.20204    2960.5517 
    4900    1299.2723    59.803658      2204118          147  0.007193656   -114.69633    2960.3734 
    5000    1298.9321    59.711124      2204118          147  0.007193656   -111.18329    2963.0814 
    5100    1300.3978    59.740443      2204118          147  0.007193656   -107.66113    2970.0726 
    5200    1301.2075    59.763499      2204118          147  0.007193656   -104.18197     2975.468 
    5300    1299.9969    59.709247      2204118          147  0.007193656    -100.7599    2976.0249 
    5400    1298.8139    59.675022      2204118          147  0.007193656   -97.401782    2976.5831 
    5500     1299.661    59.757407      2204118          147  0.007193656   -94.094037    2981.8958 
    5600    1301.1162      59.8824      2204118          147  0.007193656   -90.869531    2988.5644 
    5700     1300.722    59.924614      2204118          147  0.007193656   -87.776573    2990.7243 
    5800    1299.1431    59.918611      2204118          147  0.007193656     -84.7556    2990.0084 
    5900    1299.0469    59.991391      2204118          147  0.007193656   -81.845609    2992.6907 
    6000    1300.6006    60.153641      2204118          147  0.007193656   -78.981031    2999.2326 
    6100    1301.1838    60.269761      2204118          147  0.007193656   -76.257493    3003.3365 
    6200    1299.8081    60.295576      2204118          147  0.007193656   -73.585832    3002.7522 
    6300    1298.7954    60.338011      2204118          147  0.007193656   -71.068197     3002.873 
    6400    1299.8556    60.483428      2204118          147  0.007193656   -68.650071    3007.8002 
    6500    1301.2032    60.643525      2204118          147  0.007193656   -66.330686    3013.3091 
    6600    1300.5582    60.705521      2204118          147  0.007193656   -64.114696    3013.9986 
    6700    1299.0071    60.721724      2204118          147  0.007193656   -62.011031    3012.4311 
    6800    1299.1699     60.82168      2204118          147  0.007193656   -59.997489    3014.8299 
    6900    1300.7818    60.990242      2204118          147  0.007193656   -58.116039    3020.5265 
    7000    1301.0681    61.121525      2204118          147  0.007193656   -56.220471    3023.0996 
    7100    1295.6962    62.357449      2204118          147  0.007193656   -44.055988      3022.55 
    7200    1301.8765    61.857375      2204118          147  0.007193656   -49.831264     3031.402 
    7300     1300.162    63.156256      2204118          147  0.007193656   -39.624639    3037.5508 
    7400    1297.7934    65.172785      2204118          147  0.007193656   -23.906143    3047.6634 
    7500    1299.2679    66.965979      2204118          147  0.007193656   -11.528754    3063.5306 
    7600    1301.0691    67.588797      2204118          147  0.007193656    -8.911458    3070.4109 
    7700    1283.9146    73.731656      2204118          147  0.007193656    42.119921    3080.8417 
    7800    1310.3204    74.463512      2204118          147  0.007193656    35.571968    3136.7902 
    7900    1303.2595    80.267358      2204118          147  0.007193656    80.603237    3165.1097 
    8000    1306.7488    79.901013      2204118          147  0.007193656    75.380868    3168.1457 
    8100    1296.8043     79.65848      2204118          147  0.007193656    75.553915    3144.7825 
    8200    1287.1301    82.047482      2204118          147  0.007193656    95.422831    3141.7549 
    8300    1302.7296    86.502586      2204118          147  0.007193656     122.8577    3206.1101 
    8400    1342.8782    83.057293      2204118          147  0.007193656    81.458379     3259.733 
    8500    1297.5092    82.426013      2204118          147  0.007193656    92.314466    3163.2115 
    8600    1243.1713    86.674862      2204118          147  0.007193656    142.13814    3084.4302 
    8700    1306.0293    86.731554      2204118          147  0.007193656    117.10173    3208.1637 
    8800     1349.245    92.406958      2204118          147  0.007193656    143.30228    3336.6456 
    8900    1316.7809    90.972811      2204118          147  0.007193656    142.72256    3259.2311 
    9000    1253.3087    87.445376      2204118          147  0.007193656    136.90271    3103.1876 
    9100    1266.1798    88.382158      2204118          147  0.007193656    137.99435    3134.7422 
    9200    1338.3515    92.707875      2204118          147  0.007193656    143.77354    3311.3347 
    9300    1327.9349    97.796977      2204118          147  0.007193656    184.27186    3327.1792 
    9400    1293.3157    91.483152      2204118          147  0.007193656    149.04914     3210.021 
    9500    1268.4105    88.580979      2204118          147  0.007193656    135.55759    3137.5848 
    9600    1279.1527    94.387209      2204118          147  0.007193656    172.51184    3199.9634 
    9700    1336.0486    100.14089      2204118          147  0.007193656    193.11054    3355.2211 
    9800    1340.7458     100.5925      2204118          147  0.007193656    194.52579    3367.7536 
    9900    1285.3598    92.121995      2204118          147  0.007193656    150.99524    3193.1374 
   10000    1250.4778    87.704496      2204118          147  0.007193656    130.40876    3089.9936 
   10100    1287.4704    92.189283      2204118          147  0.007193656    149.07943    3196.2169 
   10200    1332.8951    102.74913      2204118          147  0.007193656    209.76352    3364.4105 
   10300    1336.4387    103.94612      2204118          147  0.007193656    217.04233    3380.0763 
   10400     1308.486    89.836672      2204118          147  0.007193656    121.20883    3218.0854 
   10500    1224.5701    92.197223      2204118          147  0.007193656    169.85901    3068.1264 
   10600    1291.6017    91.302862      2204118          147  0.007193656    137.05207    3193.9674 
   10700    1355.8435    99.888495      2204118          147  0.007193656    177.66204    3386.6225 
   10800    1345.0876    97.337714      2204118          147  0.007193656    160.57567    3344.0794 
   10900     1243.728    96.542008      2204118          147  0.007193656    190.33574    3133.9455 
   11000    1250.6423    95.091588      2204118          147  0.007193656    175.68455    3135.6586 
   11100    1335.0648    100.30894      2204118          147  0.007193656    182.12101    3341.9031 
   11200     1339.883    111.63391      2204118          147  0.007193656    265.23978    3436.4256 
   11300    1327.6082    98.996714      2204118          147  0.007193656    174.32889    3316.4631 
   11400     1219.823    101.44751      2204118          147  0.007193656    233.63956    3120.6718 
   11500    1290.4014    94.407467      2204118          147  0.007193656     152.8869    3206.9615 
   11600    1320.1949    113.44843      2204118          147  0.007193656    285.04748    3409.6361 
   11700    1328.4556    121.08118      2204118          147  0.007193656    339.79812    3483.9378 
   11800    1270.8085    122.81359      2204118          147  0.007193656    369.36095    3377.0636 
   11900    1283.3728     117.3249      2204118          147  0.007193656    320.11686    3357.5564 
   12000    1304.2731    120.80116      2204118          147  0.007193656    337.14947    3424.0549 
   12100    1321.6983    120.11204      2204118          147  0.007193656    326.38051    3454.5273 
   12200    1295.2444    118.64484      2204118          147  0.007193656    323.48112     3389.018 
   12300    1271.5915    116.47325      2204118          147  0.007193656    313.32727    3322.8832 
   12400    1282.2065    119.51763      2204118          147  0.007193656    330.63083      3365.31 
   12500    1328.5167    128.50096      2204118          147  0.007193656    382.24902    3526.5334 
   12600    1403.0833    114.67471      2204118          147  0.007193656    248.89682    3569.6626 
   12700    1238.8663    118.78431      2204118          147  0.007193656    339.19983     3271.303 
   12800    1195.9268    122.09913      2204118          147  0.007193656    381.41782    3211.8934 
   12900    1360.3161    118.93409      2204118          147  0.007193656     296.8523    3516.3983 
   13000    1395.4108    125.51645      2204118          147  0.007193656    330.91184    3633.5187 
   13100    1277.7401    124.86963      2204118          147  0.007193656    368.72421    3392.8325 
   13200    1226.7561    120.61642      2204118          147  0.007193656    355.23218    3258.6734 
   13300    1324.8471    118.74025      2204118          147  0.007193656    305.75652    3441.3559 
   13400    1361.3283    125.69804      2204118          147  0.007193656    345.47707    3567.4187 
   13500    1274.1585    128.86248      2204118          147  0.007193656    400.52197    3416.1534 
   13600       1244.7    119.95044      2204118          147  0.007193656    339.46091    3285.3712 
   13700    1273.3937     128.8206      2204118          147  0.007193656    394.64869    3408.4701 
   13800    1399.9725    127.87748      2204118          147  0.007193656    341.56462     3654.968 
   13900    1326.7228    130.26962      2204118          147  0.007193656     386.3659    3526.4045 
   14000    1217.8453    134.04141      2204118          147  0.007193656    454.52507    3336.8764 
   14100    1297.0902    124.15511      2204118          147  0.007193656    352.50474    3422.4101 
   14200    1341.0687    121.82836      2204118          147  0.007193656    318.91781    3492.9097 
   14300     1289.134     127.0069      2204118          147  0.007193656     381.7732    3432.8481 
   14400     1295.825    113.34904      2204118          147  0.007193656    278.15018    3345.0612 
   14500    1241.9864    117.69225      2204118          147  0.007193656    331.19547    3270.6833 
   14600     1315.665    113.17797      2204118          147  0.007193656    269.17795    3383.0453 
   14700    1322.6497    121.81195      2204118          147  0.007193656    331.91821    3462.3167 
   14800    1304.1695    119.41716      2204118          147  0.007193656    319.01928    3405.6796 
   14900    1287.3941    111.98878      2204118          147  0.007193656    267.47298      3314.43 
   15000    1247.9457     120.9567      2204118          147  0.007193656    347.32685    3300.9188 
   15100    1305.2344    129.21056      2204118          147  0.007193656    387.70558    3476.8864 
   15200    1393.0977     121.1228      2204118          147  0.007193656     295.1261    3592.2586 
   15300    1312.1604    112.92534      2204118          147  0.007193656    264.59357    3370.1665 
   15400    1205.9557    111.32332      2204118          147  0.007193656    290.83675    3145.0482 
   15500    1264.2614    116.31916      2204118          147  0.007193656    306.41325    3298.6206 
   15600    1369.4706    132.53247      2204118          147  0.007193656    391.10147    3632.3141 
   15700    1409.1645    124.74765      2204118          147  0.007193656    317.02701    3652.1857 
   15800    1244.4323    116.32576      2204118          147  0.007193656    313.46935     3258.746 
   15900    1169.3898    118.02021      2204118          147  0.007193656    352.84755    3120.5162 
   16000    1347.1717    118.64488      2204118          147  0.007193656     295.1198    3483.5563 
   16100    1435.6798    122.25681      2204118          147  0.007193656    291.21562    3689.1297 
   16200      1279.35    118.03989      2204118          147  0.007193656    316.63166    3344.5501 
   16300    1196.3297    107.62186      2204118          147  0.007193656     269.1052    3100.5344 
   16400    1259.2017    111.60965      2204118          147  0.007193656     277.0775    3257.3096 
   16500    1393.7881    116.05791      2204118          147  0.007193656    259.97051    3558.7368 
   16600    1343.6326    117.65499      2204118          147  0.007193656    289.12488    3469.1851 
   16700    1234.7313    111.86775      2204118          147  0.007193656    285.97692    3208.2936 
   16800    1247.2756     105.4211      2204118          147  0.007193656    233.63273    3185.6386 
   16900    1327.7445    109.22291      2204118          147  0.007193656    231.55737    3374.0142 
   17000    1351.1854    117.76514      2204118          147  0.007193656    286.07519     3484.011 
   17100    1308.8263    114.43724      2204118          147  0.007193656    275.92875    3373.6106 
   17200    1237.9792    115.77914      2204118          147  0.007193656    314.92848     3244.932 
   17300    1286.1215    110.97746      2204118          147  0.007193656    260.88101    3304.8261 
   17400    1323.9591    115.93919      2204118          147  0.007193656    285.40925    3418.9069 
   17500    1348.9111    108.20066      2204118          147  0.007193656     221.6238    3414.1769 
   17600     1276.657    101.62543      2204118          147  0.007193656     202.3214    3223.8663 
   17700    1251.1706    94.112108      2204118          147  0.007193656    156.84069    3118.0653 
   17800     1292.739    95.621382      2204118          147  0.007193656    154.39336    3214.0004 
   17900    1345.7563    98.782443      2204118          147  0.007193656    158.39798    3343.4844 
   18000    1295.7311    108.52931      2204118          147  0.007193656    248.77599    3315.4647 
   18100    1275.8743    107.19408      2204118          147  0.007193656    243.16298    3262.8552 
   18200    1293.1826    106.25067      2204118          147  0.007193656    227.72635    3288.3833 
   18300      1324.83    105.17835      2204118          147  0.007193656    206.61531    3342.1741 
   18400    1296.1771    108.41702      2204118          147  0.007193656    243.10551    3310.8497 
   18500    1293.2057     102.3374      2204118          147  0.007193656    201.06643    3261.7781 
   18600    1281.8671    101.87829      2204118          147  0.007193656    204.30282    3238.1787 
   18700    1296.5172     102.5987      2204118          147  0.007193656    204.97866    3273.5279 
   18800    1317.9397    102.15982      2204118          147  0.007193656    194.52324    3313.7743 
   18900    1306.2328    100.86439      2204118          147  0.007193656    190.30119    3281.8448 
   19000    1280.2295    100.83193      2204118          147  0.007193656    200.77746    3230.7775 
   19100      1294.14    98.244878      2204118          147  0.007193656    175.70451    3238.6274 
   19200    1297.7713    102.03789      2204118          147  0.007193656    202.47621    3273.9937 
   19300    1323.8995    99.899169      2204118          147  0.007193656    176.15157    3309.5082 
   19400    1296.7709    103.10573      2204118          147  0.007193656    211.42861    3280.5782 
   19500    1303.2767      96.2943      2204118          147  0.007193656    158.21079    3242.7581 
   19600    1268.5485    102.70582      2204118          147  0.007193656    220.08274    3222.4365 
   19700    1318.8608    99.077459      2204118          147  0.007193656    173.71673    3295.1479 
   19800    1312.9544    102.36453      2204118          147  0.007193656    200.09369    3307.5459 
   19900    1292.4162    101.87414      2204118          147  0.007193656    204.04549    3262.8886 
   20000    1289.7159    99.113394      2204118          147  0.007193656    184.79501     3237.247 
   20100    1299.3176    97.976843      2204118          147  0.007193656    172.38807    3247.5652 
   20200    1289.3419    104.79678      2204118          147  0.007193656    226.85205     3278.419 
   20300    1321.6708    102.87253      2204118          147  0.007193656    199.12994    3327.2118 
   20400     1299.632     105.8073      2204118          147  0.007193656    229.28163    3305.2028 
   20500    1309.0139    100.17823      2204118          147  0.007193656    184.86369    3282.9895 
   20600    1293.0049    98.878685      2204118          147  0.007193656    182.32363    3242.5601 
   20700    1275.5281    102.24936      2204118          147  0.007193656    213.58321    3232.4562 
   20800    1309.3544    101.62711      2204118          147  0.007193656    195.36807    3294.2998 
   20900    1315.9618    103.65477      2204118          147  0.007193656    207.57236    3322.1424 
   21000    1303.6154    100.78315      2204118          147  0.007193656     190.8009    3276.1498 
   21100    1285.6109    97.186552      2204118          147  0.007193656    170.80327    3213.5398 
   21200    1284.6363    98.813395      2204118          147  0.007193656    183.23127    3223.6611 
   21300    1306.3444    102.44634      2204118          147  0.007193656    201.77739    3293.5851 
   21400    1328.7882    101.43361      2204118          147  0.007193656    186.38189    3331.3089 
   21500    1294.3871    100.12804      2204118          147  0.007193656    189.90131    3253.4089 
   21600    1257.3611    101.97192      2204118          147  0.007193656    217.35331    3193.2293 
   21700    1316.3222    98.649396      2204118          147  0.007193656    171.23999    3286.6629 
   21800     1322.327      103.447      2204118          147  0.007193656    205.42683    3335.0618 
   21900    1295.0076    104.48237      2204118          147  0.007193656    221.61121    3286.5875 
   22000    1272.0711    105.89437      2204118          147  0.007193656    239.04525    3249.7363 
   22100    1324.1401    100.14481      2204118          147  0.007193656    176.07855    3310.0046 
   22200    1315.9571    104.29309      2204118          147  0.007193656    210.74517     3325.304 
   22300    1289.7371    106.19208      2204118          147  0.007193656    235.18608    3287.6884 
   22400    1307.2738    99.923477      2204118          147  0.007193656    183.03099    3277.0385 
   22500    1295.7906    98.404611      2204118          147  0.007193656    176.11446     3242.944 
   22600    1281.4189    103.09318      2204118          147  0.007193656    217.96856    3250.7836 
   22700    1329.5899    98.645436      2204118          147  0.007193656    167.46828    3314.2926 
   22800    1299.6138     102.3343      2204118          147  0.007193656    205.45559    3281.3337 
   22900    1280.4274    103.28559      2204118          147  0.007193656    218.76582    3249.2342 
   23000    1283.7585    105.34158      2204118          147  0.007193656    232.68592    3271.0383 
   23100    1322.0495    101.47475      2204118          147  0.007193656    189.06291    3318.0411 
   23200    1300.4012    103.66235      2204118          147  0.007193656    213.98594    3291.7277 
   23300    1285.8386    101.96463      2204118          147  0.007193656    205.58037    3248.8558 
   23400     1280.244    107.40547      2204118          147  0.007193656    247.91402    3277.9485 
   23500    1315.5844    111.99589      2204118          147  0.007193656    268.68251    3382.3591 
   23600    1346.8547    107.84277      2204118          147  0.007193656    224.86666    3412.5529 
   23700    1294.5083    104.69061      2204118          147  0.007193656    222.02584    3285.8205 
   23800    1255.2793    102.07757      2204118          147  0.007193656    219.14978    3190.0985 
   23900    1304.1091    99.540098      2204118          147  0.007193656    182.11062     3268.628 
   24000    1337.0835    104.76159      2204118          147  0.007193656    208.72809    3373.2881 
   24100    1303.4416    110.94149      2204118          147  0.007193656    268.20258    3353.1402 
   24200    1276.9413    109.51146      2204118          147  0.007193656    265.60456    3287.8221 
   24300    1308.4253    102.23701      2204118          147  0.007193656    199.34056    3296.0733 
   24400    1304.8997    102.52843      2204118          147  0.007193656    202.34685    3290.7354 
   24500    1289.6602    103.99288      2204118          147  0.007193656    217.66917    3269.9895 
   24600    1301.2049    104.70045      2204118          147  0.007193656     218.1675    3297.8112 
   24700    1317.0476    105.04607      2204118          147  0.007193656    215.29915     3332.439 
   24800    1308.2048    106.72201      2204118          147  0.007193656    230.70728    3326.9183 
   24900    1253.0624    121.31555      2204118          147  0.007193656     362.6507    3328.3526 
   25000    1364.1708    104.44089      2204118          147  0.007193656     194.4427    3423.1119 
   25100    1301.3356    108.55058      2204118          147  0.007193656    249.43208    3329.3852 
   25200    1262.2925    106.40917      2204118          147  0.007193656       246.65    3234.1974 
   25300    1271.3112    113.12281      2204118          147  0.007193656    295.40612    3304.2986 
   25400    1360.3664    106.37002      2204118          147  0.007193656    210.71629    3430.3815 
   25500    1308.5187    110.22826      2204118          147  0.007193656    257.57828    3354.5322 
   25600    1257.2965      110.347      2204118          147  0.007193656    277.10467    3252.8278 
   25700     1287.957     108.6753      2204118          147  0.007193656    252.23769    3300.5268 
   25800    1328.0145    113.31402      2204118          147  0.007193656    274.30774    3417.4036 
   25900    1332.5431    110.66401      2204118          147  0.007193656    253.10418    3406.9182 
   26000    1277.4853    105.04442      2204118          147  0.007193656    229.26567    3252.7709 
   26100    1237.0991    108.99151      2204118          147  0.007193656    271.63696    3199.5575 
   26200    1322.4735    112.36917      2204118          147  0.007193656    266.94796    3396.9296 
   26300    1387.2546    108.49726      2204118          147  0.007193656    215.84233    3499.1455 
   26400    1264.6047    109.16121      2204118          147  0.007193656    265.46495    3258.4848 
   26500    1220.4575    107.32724      2204118          147  0.007193656    267.10043    3155.6343 
   26600    1306.3938    112.59806      2204118          147  0.007193656    275.98753    3367.9122 
   26700    1403.6696     111.7789      2204118          147  0.007193656    235.68602    3557.8396 
   26800    1307.0321    107.69772      2204118          147  0.007193656    241.04567    3334.4812 
   26900    1214.2815    101.73449      2204118          147  0.007193656    229.20108    3103.1179 
   27000    1263.0184    104.98012      2204118          147  0.007193656    236.48793    3225.7533 
   27100    1361.2981    116.48747      2204118          147  0.007193656    288.88832    3510.7585 
   27200    1376.4451    110.75915      2204118          147  0.007193656    239.57961    3497.2993 
   27300    1229.1192    109.87952      2204118          147  0.007193656    285.52838    3194.5624 
   27400    1215.0595     107.9925      2204118          147  0.007193656    275.25101    3151.0092 
   27500    1345.0716    110.08313      2204118          147  0.007193656     243.3637    3426.8295 
   27600     1385.458       113.38      2204118          147  0.007193656    253.56267    3532.6136 
   27700    1274.9776    110.90092      2204118          147  0.007193656    275.39236    3292.9624 
   27800    1241.1753    102.18562      2204118          147  0.007193656    222.93677    3160.5049 
   27900      1287.75    105.54145      2204118          147  0.007193656    232.01154    3279.8109 
   28000    1327.9324    117.56856      2204118          147  0.007193656    307.07087    3449.9725 
   28100    1356.4841    111.28811      2204118          147  0.007193656    247.69669    3458.1734 
   28200    1281.8048    106.26213      2204118          147  0.007193656    237.67063     3271.399 
   28300     1240.322    104.92162      2204118          147  0.007193656    242.48687    3178.0353 
   28400    1308.5336    105.97815      2204118          147  0.007193656     225.4221    3322.4113 
   28500    1345.0317    113.04689      2204118          147  0.007193656    265.28345     3448.655 
   28600    1295.6551    115.25144      2204118          147  0.007193656     299.5977    3366.1064 
   28700    1276.7966    106.57591      2204118          147  0.007193656    240.81026    3262.6854 
   28800     1283.398    104.53929      2204118          147  0.007193656    223.65091      3261.15 
   28900     1295.031    109.22476      2204118          147  0.007193656    254.56107    3319.5927 
   29000    1330.5762     108.2607      2204118          147  0.007193656    233.78103    3382.9398 
   29100    1304.6676    108.45109      2204118          147  0.007193656     245.5304    3333.3696 
   29200    1262.2131    108.67542      2204118          147  0.007193656    262.87916    3250.2386 
   29300    1287.9546    107.61371      2204118          147  0.007193656    247.43693    3295.7204 
   29400    1355.9155    99.129863      2204118          147  0.007193656    159.65183    3368.7828 
   29500     1277.688    108.25296      2204118          147  0.007193656     256.7006    3280.6855 
   29600    1278.9231    104.87584      2204118          147  0.007193656    229.90642    3256.8145 
   29700     1306.417    105.47647      2204118          147  0.007193656    224.20854    3316.1881 
   29800    1315.7719    108.68762      2204118          147  0.007193656    245.19637    3359.3169 
   29900    1327.1243    104.14926      2204118          147  0.007193656    209.86006     3350.849 
   30000     1293.251    98.484331      2204118          147  0.007193656    180.73864    3241.5575 
   30100    1247.1113    102.27893      2204118          147  0.007193656      225.004    3176.6212 
   30200    1312.0808    103.58975      2204118          147  0.007193656    208.87606    3314.2605 
   30300    1351.2318    109.68141      2204118          147  0.007193656    240.52201    3438.5677 
   30400    1338.8116    99.795601      2204118          147  0.007193656    172.10368    3340.7536 
   30500    1224.6896    98.726416      2204118          147  0.007193656    205.92612    3104.4764 
   30600    1252.4549    98.390058      2204118          147  0.007193656    192.93028    3157.1943 
   30700    1356.9583    105.73979      2204118          147  0.007193656     210.6386    3422.2374 
   30800    1367.6936    108.96319      2204118          147  0.007193656    230.83176    3467.8386 
   30900    1288.1748    100.02495      2204118          147  0.007193656     192.6026    3241.4074 
   31000    1221.7325    99.166395      2204118          147  0.007193656    211.13142     3102.683 
   31100    1299.0022    99.998926      2204118          147  0.007193656    188.30602    3262.7365 
   31200    1349.1459    110.95744      2204118          147  0.007193656    250.28554    3443.3943 
   31300    1320.3935    114.20548      2204118          147  0.007193656    283.63844    3408.6973 
   31400     1293.761    101.54655      2204118          147  0.007193656    198.78552    3260.8115 
   31500    1229.8099    106.54124      2204118          147  0.007193656    262.56933    3173.2381 
   31600    1316.1293    102.13019      2204118          147  0.007193656    199.81855    3314.7849 
   31700    1355.7442    101.85477      2204118          147  0.007193656    184.86785    3393.5932 
   31800    1294.3509    98.291997      2204118          147  0.007193656    180.38181    3243.8038 
   31900    1233.8406    98.551498      2204118          147  0.007193656    203.68229    3123.8908 
   32000     1296.175    99.636474      2204118          147  0.007193656    187.65743    3255.3967 
   32100    1366.5283    103.57604      2204118          147  0.007193656    191.39725     3425.646 
   32200    1316.7292    103.56361      2204118          147  0.007193656    209.23294     3325.619 
   32300    1248.7588     96.45558      2204118          147  0.007193656    180.01197    3135.5283 
   32400    1240.1735    102.69819      2204118          147  0.007193656    229.19347    3164.3905 
   32500    1346.1792     108.9407      2204118          147  0.007193656    236.23314    3422.3204 
   32600    1388.8278    108.03713      2204118          147  0.007193656    214.05655    3501.0829 
   32700    1282.2322    101.93232      2204118          147  0.007193656     208.5623    3243.3022 
   32800     1219.727    95.451626      2204118          147  0.007193656    182.90183    3069.7067 
   32900    1260.7859    103.97711      2204118          147  0.007193656    231.10292    3215.0847 
   33000    1376.1584    112.00421      2204118          147  0.007193656    247.31643    3504.3575 
   33100    1367.2595    110.82239      2204118          147  0.007193656    240.13696    3476.1164 
   33200    1247.4415    105.48485      2204118          147  0.007193656    243.53734    3195.9359 
   33300    1219.9778     103.9809      2204118          147  0.007193656    243.42563    3130.8241 
   33400    1324.1432    104.94896      2204118          147  0.007193656    213.74371    3347.6771 
   33500    1377.2154    106.86443      2204118          147  0.007193656    210.20075    3469.7435 
   33600    1277.5802    106.88204      2204118          147  0.007193656    246.51553    3270.2454 
   33700    1228.8647    103.63843      2204118          147  0.007193656     238.7469    3147.1787 
   33800    1296.7081    106.34667      2204118          147  0.007193656    234.09535    3303.0964 
   33900    1357.1873    115.78559      2204118          147  0.007193656    283.02171    3495.1627 
   34000    1353.4468    107.49242      2204118          147  0.007193656    222.92064    3426.2087 
   34100    1254.9018    97.546538      2204118          147  0.007193656    183.07831    3153.1338 
   34200    1198.0727    106.32761      2204118          147  0.007193656    268.90823    3104.4625 
   34300    1347.0756    107.99399      2204118          147  0.007193656    225.70433    3413.9133 
   34400    1387.4084    115.21791      2204118          147  0.007193656    266.68085     3550.348 
   34500     1298.207    102.51456      2204118          147  0.007193656     205.4012    3277.9496 
   34600    1202.2817    95.289278      2204118          147  0.007193656    187.19515    3032.7112 
   34700    1263.1382    97.329039      2204118          147  0.007193656    179.20979    3168.7589 
   34800    1366.2961    110.99419      2204118          147  0.007193656    243.58823    3477.2876 
   34900     1390.681      108.817      2204118          147  0.007193656    218.75225    3510.1647 
   35000    1259.9082    99.248359      2204118          147  0.007193656    193.86329    3175.7676 
   35100    1175.6304    102.81544      2204118          147  0.007193656    250.77611     3033.215 
   35200    1324.4952    104.76221      2204118          147  0.007193656    210.39757    3345.1642 
   35300    1404.3329    116.94972      2204118          147  0.007193656    270.84887    3594.5723 
   35400    1332.7318    112.21406      2204118          147  0.007193656    263.68651    3417.9471 
   35500     1250.089    90.691338      2204118          147  0.007193656    134.18763    3092.8523 
   35600    1188.8172    98.346784      2204118          147  0.007193656    213.99167    3027.6404 
   35700    1336.9132    104.61751      2204118          147  0.007193656    203.13828    3367.2953 
   35800    1382.9331    123.35882      2204118          147  0.007193656     324.7337    3597.8089 
   35900    1323.9358    117.31865      2204118          147  0.007193656    299.50578    3432.9483 
   36000    1230.5714    107.12643      2204118          147  0.007193656    258.62888       3171.1 
   36100     1248.095    106.45076      2204118          147  0.007193656    248.79684     3202.742 
   36200    1360.4002    108.79258      2204118          147  0.007193656    228.26976     3448.015 
   36300     1359.439    108.74215      2204118          147  0.007193656    229.83157    3447.3017 
   36400    1255.5343     105.2565      2204118          147  0.007193656    243.46843    3215.0208 
   36500    1257.7124    95.231199      2204118          147  0.007193656    169.10062     3145.808 
   36600    1290.1304    101.42925      2204118          147  0.007193656    203.97954    3257.4126 
   36700    1348.2361     106.5444      2204118          147  0.007193656    219.46483    3410.4203 
   36800    1326.7384    109.16234      2204118          147  0.007193656    244.37304    3384.4486 
   36900    1267.8963    107.80337      2204118          147  0.007193656    254.46884    3255.2792 
   37000     1260.507    108.53117      2204118          147  0.007193656     264.1422    3247.4638 
   37100    1335.8868    101.69893      2204118          147  0.007193656    185.85996    3347.5876 
   37200    1312.7798    104.07618      2204118          147  0.007193656    211.09536    3318.1343 
   37300    1258.6541    108.61165      2204118          147  0.007193656    263.37189     3242.308 
   37400    1311.5887    102.76809      2204118          147  0.007193656    199.60928    3303.8291 
   37500    1319.2022    108.18646      2204118          147  0.007193656    237.90862    3360.1477 
   37600    1302.0047     110.5764      2204118          147  0.007193656    260.93926    3342.4761 
   37700    1286.4457    112.82788      2204118          147  0.007193656    283.92829    3328.6406 
   37800     1311.737    108.25591      2204118          147  0.007193656    241.58843    3346.1593 
   37900    1309.2346    102.83537      2204118          147  0.007193656    201.73434    3300.3826 
   38000    1288.1079    101.08546      2204118          147  0.007193656    196.16345    3244.8099 
   38100    1288.0719     103.1429      2204118          147  0.007193656     212.6105    3261.1717 
   38200    1322.6896    101.56779      2204118          147  0.007193656    188.04279    3318.5358 
   38300    1312.0693    103.40977      2204118          147  0.007193656    204.53308    3309.8905 
   38400    1294.2848    104.20673      2204118          147  0.007193656    216.68565    3279.9513 
   38500    1297.0767    104.24425      2204118          147  0.007193656    215.78503    3285.6584 
   38600    1302.9964    106.25803      2204118          147  0.007193656    228.38521     3312.269 
   38700    1312.7476    106.61084      2204118          147  0.007193656    229.26682    3336.2295 
   38800    1292.2808    105.99669      2204118          147  0.007193656    233.36549    3291.8882 
   38900    1264.2164    107.37402      2204118          147  0.007193656    251.52209    3243.6228 
   39000    1295.8757    112.56831      2204118          147  0.007193656    278.03384    3345.0647 
   39100     1352.612    112.33794      2204118          147  0.007193656    254.56336    3455.8756 
   39200    1311.4381    110.80186      2204118          147  0.007193656    256.90491    3360.7684 
   39300    1245.1243    112.03062      2204118          147  0.007193656    289.74929    3236.6637 
   39400    1278.2977    112.49416      2204118          147  0.007193656    280.73267    3306.1605 
   39500    1341.5553     115.0472      2204118          147  0.007193656    277.12497    3452.2688 
   39600    1326.9031    114.89032      2204118          147  0.007193656    280.90014    3421.3655 
   39700    1280.2257    108.41449      2204118          147  0.007193656    249.37886    3279.3699 
   39800    1251.5902    108.15689      2204118          147  0.007193656    258.29002    3220.5077 
   39900    1314.6022    107.35145      2204118          147  0.007193656    229.23058    3340.5826 
   40000    1356.0614    107.80746      2204118          147  0.007193656    219.65796    3429.1343 
   40100    1284.1355    108.77341      2204118          147  0.007193656    254.06405    3293.3088 
   40200    1247.8924    107.61252      2204118          147  0.007193656    259.49859    3212.9644 
   40300    1304.8384    108.21391      2204118          147  0.007193656    244.14534    3332.3888 
   40400    1368.0299    103.04253      2204118          147  0.007193656    183.75079    3421.5537 
   40500    1299.3662    98.548642      2204118          147  0.007193656    176.29958    3251.5917 
   40600    1222.9986    98.587726      2204118          147  0.007193656    203.90471    3098.4528 
   40700    1276.0312    103.03924      2204118          147  0.007193656    216.29521     3236.359 
   40800    1371.6585    110.00386      2204118          147  0.007193656    232.40754    3478.7985 
   40900    1339.3949    115.70603      2204118          147  0.007193656    288.51077    3458.5414 
   41000     1276.537    103.93199      2204118          147  0.007193656    222.87097    3244.1317 
   41100    1238.1481    100.91014      2204118          147  0.007193656    214.69654    3145.0999 
   41200    1287.5272    108.27798      2204118          147  0.007193656    252.81305    3300.0851 
   41300    1386.1987    105.00001      2204118          147  0.007193656    191.10641    3471.9105 
   41400    1306.5872     107.4563      2204118          147  0.007193656    239.23089    3331.6133 
   41500    1237.3772    102.28292      2204118          147  0.007193656    224.68846    3153.2672 
   41600    1259.7127    107.24189      2204118          147  0.007193656    255.49769    3236.9392 
   41700    1386.3805    106.34383      2204118          147  0.007193656    203.53937    3484.7736 
   41800    1366.3478    104.59639      2204118          147  0.007193656    198.15084    3431.9726 
   41900    1229.3061    103.39533      2204118          147  0.007193656    239.40142    3148.8779 
   42000    1232.8939    100.62507      2204118          147  0.007193656    216.73715    3134.7049 
   42100     1337.583    107.64084      2204118          147  0.007193656    232.17094    3397.9132 
   42200    1384.5675    107.10992      2204118          147  0.007193656    210.72977    3487.6731 
   42300    1270.2633    102.86315      2204118          147  0.007193656    219.74342    3226.1559 
   42400    1210.5701      101.338      2204118          147  0.007193656    231.08082    3096.2136 
   42500     1316.205    99.732996      2204118          147  0.007193656     181.4373    3296.5829 
   42600    1370.6505    104.93852      2204118          147  0.007193656    200.62121    3444.6265 
   42700    1301.0432    104.35782      2204118          147  0.007193656    218.62177    3297.8828 
   42800    1238.8286    105.26638      2204118          147  0.007193656    247.05612    3179.0701 
   42900    1305.2057    103.17755      2204118          147  0.007193656    208.15727      3297.27 
   43000    1345.7602     107.3134      2204118          147  0.007193656    224.10514    3409.2009 
   43100    1311.9315    104.80403      2204118          147  0.007193656     215.1205    3320.1516 
   43200     1257.288    102.92745      2204118          147  0.007193656    220.01681    3195.7197 
   43300    1280.6158    103.89694      2204118          147  0.007193656    220.10343    3251.0177 
   43400     1337.088    105.19077      2204118          147  0.007193656    209.05561    3373.6262 
   43500    1316.4651    107.87985      2204118          147  0.007193656    235.37728    3351.1385 
   43600    1266.2341    111.12051      2204118          147  0.007193656    276.70773    3273.5839 
   43700    1291.3153    111.32752      2204118          147  0.007193656    270.58949    3326.8271 
   43800    1358.7026    104.65746      2204118          147  0.007193656    198.17656    3413.9039 
   43900    1302.0011    104.91001      2204118          147  0.007193656    221.03372    3302.5621 
   44000     1242.425     106.5089      2204118          147  0.007193656    254.84475    3195.3705 
   44100    1314.0665    100.61919      2204118          147  0.007193656    186.83949    3296.9238 
   44200    1346.0697    101.22996      2204118          147  0.007193656    181.43688    3367.2652 
   44300    1302.3998    99.024109      2204118          147  0.007193656    180.09768    3262.5695 
   44400    1249.9904    100.83775      2204118          147  0.007193656    211.18827    3169.6196 
   44500    1290.3156    103.53483      2204118          147  0.007193656    215.00459     3268.876 
   44600    1352.8781    107.29183      2204118          147  0.007193656    220.74749    3422.6896 
   44700    1330.6724    107.02838      2204118          147  0.007193656    227.08983    3376.4763 
   44800    1254.7362    106.74378      2204118          147  0.007193656     253.0303    3222.6936 
   44900    1272.8583    104.43167      2204118          147  0.007193656     229.6625    3242.2166 
   45000    1343.9193    104.26277      2204118          147  0.007193656    202.92229     3383.661 
   45100    1328.6772    107.24445      2204118          147  0.007193656    231.88552    3376.5499 
   45200     1285.311    99.773729      2204118          147  0.007193656     191.0038    3233.0307 
   45300    1254.1172     98.67397      2204118          147  0.007193656    193.05845    3161.2569 
   45400    1274.0882    109.38914      2204118          147  0.007193656    264.73046    3280.1955 
   45500    1369.8745    110.68432      2204118          147  0.007193656    238.69988    3480.8684 
   45600    1354.4723    105.57402      2204118          147  0.007193656    208.68297    3414.3982 
   45700    1257.8631    98.317489      2204118          147  0.007193656    192.21967    3169.2836 
   45800    1236.0377    97.761895      2204118          147  0.007193656    197.04937    3122.4578 
   45900    1313.7742    103.99051      2204118          147  0.007193656    215.90889    3325.3012 
   46000    1385.6904    102.16288      2204118          147  0.007193656    174.98208    3454.5832 
   46100    1274.0737    107.26788      2204118          147  0.007193656     255.0826    3270.5133 
   46200    1250.2841    96.377942      2204118          147  0.007193656    182.27485    3141.4012 
   46300    1281.6089    97.673799      2204118          147  0.007193656    182.35472    3215.6195 
   46400    1342.1843    101.19185      2204118          147  0.007193656     187.1965    3363.8288 
   46500    1332.6503    100.31815      2204118          147  0.007193656    182.89731    3336.9649 
   46600     1247.489    103.78913      2204118          147  0.007193656     237.7969     3190.308 
   46700    1254.8495    106.81393      2204118          147  0.007193656    256.04968    3225.9813 
   46800    1350.8862      106.016      2204118          147  0.007193656    213.31453    3410.5422 
   46900    1338.1213    109.58634      2204118          147  0.007193656    241.41132    3408.4275 
   47000    1260.5068    112.66178      2204118          147  0.007193656    289.67013    3272.9912 
   47100    1278.1605     109.8871      2204118          147  0.007193656    262.96941    3288.0725 
   47200    1333.9734     108.0451      2204118          147  0.007193656    229.12917    3386.3282 
   47300    1309.3875    112.26155      2204118          147  0.007193656    271.08086     3370.091 
   47400    1293.7847     105.7878      2204118          147  0.007193656    229.89459    3291.9765 
   47500    1268.4449     105.3508      2204118          147  0.007193656    238.51943    3240.6281 
   47600    1300.1412    102.68654      2204118          147  0.007193656    207.35287    3284.4791 
   47700    1318.4445     104.9718      2204118          147  0.007193656    217.01714     3337.463 
   47800    1302.7814    109.42294      2204118          147  0.007193656    255.62112    3338.9962 
   47900    1310.2235    105.21872      2204118          147  0.007193656     222.5052     3323.494 
   48000    1307.7258    99.482398      2204118          147  0.007193656    181.98683    3277.0642 
   48100    1265.0098    102.99054      2204118          147  0.007193656    223.31368    3217.2924 
   48200     1288.948    105.90185      2204118          147  0.007193656    235.77573    3286.4104 
   48300    1334.6586    109.30759      2204118          147  0.007193656     246.6638    3405.4845 
   48400    1319.9883    107.58755      2204118          147  0.007193656    238.39823     3362.498 
   48500    1257.2008     106.4849      2204118          147  0.007193656    252.39353    3227.8902 
   48600     1288.274    98.597641      2204118          147  0.007193656     181.6369    3230.6764 
   48700     1302.783    105.15618      2204118          147  0.007193656    225.16539    3308.5442 
   48800    1309.0937    112.58497      2204118          147  0.007193656    276.67777    3374.9925 
   48900    1321.2598    110.35696      2204118          147  0.007193656    254.27194    3381.3811 
   49000    1292.9991    109.11553      2204118          147  0.007193656    256.34299    3316.5658 
   49100    1271.2975    109.86637      2204118          147  0.007193656    271.40548    3280.2656 
   49200    1316.9206    105.81437      2204118          147  0.007193656    225.88318    3342.7224 
   49300    1340.6728    103.85274      2204118          147  0.007193656     203.2519     3376.307 
   49400    1281.8648     107.0897      2204118          147  0.007193656    249.15622    3283.0267 
   49500    1274.7661    101.91635      2204118          147  0.007193656    211.55735    3228.6268 
   49600    1303.1562    102.19141      2204118          147  0.007193656    203.96336    3288.2254 
   49700    1327.0761    104.45594      2204118          147  0.007193656    213.04464    3353.9195 
   49800    1317.4194    101.75232      2204118          147  0.007193656    196.06612    3314.0858 
   49900    1285.6899    99.273793      2204118          147  0.007193656    189.96558    3232.8892 
   50000     1277.992    101.64087      2204118          147  0.007193656    210.63987    3235.3443 
   50100    1312.1983    107.18116      2204118          147  0.007193656    239.54967    3345.2123 
   50200    1355.4481    106.70172      2204118          147  0.007193656    221.61123    3429.6359 
   50300    1309.9629    102.82459      2204118          147  0.007193656    212.14478    3312.5168 
   50400    1250.7623    95.107498      2204118          147  0.007193656    176.69434    3136.9526 
   50500     1264.231    92.100461      2204118          147  0.007193656    146.97613    3139.1114 
   50600    1310.9658    103.18194      2204118          147  0.007193656    210.94439    3313.6899 
   50700    1367.2886    106.31946      2204118          147  0.007193656    211.26345    3447.3117 
   50800    1311.4957    105.35686      2204118          147  0.007193656    223.47694    3327.4767 
   50900    1257.4803    97.809221      2204118          147  0.007193656    185.72784     3161.886 
   51000    1251.4184    103.04206      2204118          147  0.007193656    226.54619    3188.3572 
   51100    1325.1847    109.97612      2204118          147  0.007193656    249.27942    3385.6778 
   51200    1340.0535    116.23529      2204118          147  0.007193656    288.36968    3459.9589 
   51300    1310.0019    109.96075      2204118          147  0.007193656    251.74394    3352.2082 
   51400    1262.4163    106.20372      2204118          147  0.007193656    241.66515    3229.5056 
   51500    1271.6223    108.37626      2204118          147  0.007193656    256.08229    3265.7112 
   51600    1362.2337    103.09053      2204118          147  0.007193656    184.90424    3408.9888 
   51700    1323.3825    105.41291      2204118          147  0.007193656    218.68969    3350.8227 
   51800    1262.4982      101.514      2204118          147  0.007193656    211.42964     3199.464 
   51900    1267.6569    100.30406      2204118          147  0.007193656    199.23343     3199.477 
   52000    1311.8065    106.61941      2204118          147  0.007193656    230.18854     3334.924 
   52100    1345.4717    107.19016      2204118          147  0.007193656    221.53532    3405.9481 
   52200    1298.2253    105.24335      2204118          147  0.007193656    225.19752    3297.7895 
   52300    1253.5851    105.68091      2204118          147  0.007193656    247.07564    3214.0147 
   52400    1309.0415    101.42866      2204118          147  0.007193656    196.00864       3294.2 
   52500     1316.935    107.68498      2204118          147  0.007193656    241.75541    3358.6286 
   52600    1311.8903    103.94047      2204118          147  0.007193656    215.75758    3320.6912 
   52700    1277.4906    101.97687      2204118          147  0.007193656    214.19837     3237.716 
   52800    1299.9245    96.420616      2204118          147  0.007193656    162.56173    3239.1752 
   52900    1290.6333    105.19286      2204118          147  0.007193656    228.96208    3283.5853 
   53000    1312.6529    110.68375      2204118          147  0.007193656     259.0304     3365.769 
   53100    1323.7995    113.09008      2204118          147  0.007193656    273.30862    3406.4286 
   53200    1314.6078    105.25237      2204118          147  0.007193656    219.84836    3331.2137 
   53300    1264.6859    99.906659      2204118          147  0.007193656     198.5744    3191.7864 
   53400    1261.3708    102.63141      2204118          147  0.007193656    219.42412      3204.79 
   53500    1315.3708    111.28172      2204118          147  0.007193656    263.29483    3376.4661 
   53600    1361.9276    111.49407      2204118          147  0.007193656     247.4487    3470.8088 
   53700     1307.171     104.9561      2204118          147  0.007193656    219.27887    3313.0431 
   53800    1226.3327    104.34364      2204118          147  0.007193656    245.02527    3147.4644 
   53900    1277.0084    105.48344      2204118          147  0.007193656    235.28617    3257.6627 
   54000    1355.7675    112.57775      2204118          147  0.007193656    260.45522    3469.2357 
   54100    1355.9208    105.76123      2204118          147  0.007193656    208.36176    3417.5052 
   54200    1234.0733    105.34676      2204118          147  0.007193656    248.75482    3169.5142 
   54300    1245.5889    102.99694      2204118          147  0.007193656    225.35334    3173.3674 
   54400    1326.4976    111.32705      2204118          147  0.007193656    257.95097    3397.4567 
   54500    1378.9416    110.73108      2204118          147  0.007193656    233.94302    3497.5712 
   54600     1278.679    109.30692      2204118          147  0.007193656    259.59212    3285.9224 
   54700    1236.6309    105.22799      2204118          147  0.007193656    244.93766    3171.7501 
   54800    1298.2463    108.36493      2204118          147  0.007193656    248.93815    3321.5798 
   54900    1342.9862    114.52893      2204118          147  0.007193656    278.24794    3456.7782 
   55000    1315.6118    113.93585      2204118          147  0.007193656    283.70558    3397.4472 
   55100     1283.891    102.45348      2204118          147  0.007193656     211.4224    3250.0884 
   55200    1263.9406    97.035611      2204118          147  0.007193656    179.25134    3170.6994 
   55300    1288.1274      103.392      2204118          147  0.007193656    218.46073    3267.1533 
   55400    1343.7314    108.90397      2204118          147  0.007193656    239.01529    3419.3093 
   55500    1331.9866    107.53108      2204118          147  0.007193656    232.61429    3385.1111 
   55600    1271.6609    102.69402      2204118          147  0.007193656    217.49911    3227.2193 
   55700    1241.1321    106.61314      2204118          147  0.007193656    257.55595    3195.0217 
   55800     1328.452    106.97042      2204118          147  0.007193656    226.17279     3370.304 
   55900    1359.9281     109.3438      2204118          147  0.007193656    232.53048    3451.1581 
   56000    1284.9319    107.66936      2204118          147  0.007193656     248.3656    3289.4951 
   56100    1261.7542     100.0619      2204118          147  0.007193656    200.24719    3186.5206 
   56200    1275.0804    106.59602      2204118          147  0.007193656    245.57228    3263.3856 
   56300      1344.13    107.32124      2204118          147  0.007193656    224.54364    3405.7809 
   56400    1321.3004    110.41554      2204118          147  0.007193656    257.46477    3384.6699 
   56500    1289.6683    101.47789      2204118          147  0.007193656     203.1997    3255.5392 
   56600    1254.8371    100.28725      2204118          147  0.007193656    208.21676    3178.1191 
   56700    1312.3912    98.560554      2204118          147  0.007193656     174.9396    3281.0588 
   56800    1331.8944    105.44964      2204118          147  0.007193656    219.83839    3372.1169 
   56900    1309.4304    103.75946      2204118          147  0.007193656     213.3115    3312.4232 
   57000    1262.5943    102.27642      2204118          147  0.007193656    218.90129     3207.163 
   57100    1293.4591    97.604724      2204118          147  0.007193656    171.78224    3233.0935 
   57200    1324.1944    108.44329      2204118          147  0.007193656    240.26753     3374.322 
   57300    1344.3494    117.17198      2204118          147  0.007193656    295.42594    3477.1825 
   57400    1286.7933    113.05558      2204118          147  0.007193656    284.48917    3330.0242 
   57500    1244.7285    104.62833      2204118          147  0.007193656    237.95245    3183.9301 
   57600    1295.6688    103.64606      2204118          147  0.007193656    212.96386    3279.5052 
   57700    1308.5361    111.35901      2204118          147  0.007193656     266.7697    3363.7647 
   57800    1324.8881    107.86061      2204118          147  0.007193656    233.34275    3369.0391 
   57900    1294.3942      109.896      2204118          147  0.007193656    260.04026    3323.5649 
   58000    1303.1499    106.15496      2204118          147  0.007193656     227.8173    3312.0644 
   58100    1295.5283      108.889      2204118          147  0.007193656    249.83751    3316.0463 
   58200     1326.852    104.43392      2204118          147  0.007193656    206.00438    3346.3488 
   58300    1281.3659    109.02412      2204118          147  0.007193656    258.86165    3291.5513 
   58400     1273.589    103.75338      2204118          147  0.007193656    223.51004    3237.7936 
   58500    1308.9965     105.4756      2204118          147  0.007193656    225.88022     3323.965 
   58600    1370.3498    108.09268      2204118          147  0.007193656    224.70175    3467.9952 
   58700    1309.6228    104.38212      2204118          147  0.007193656    219.93635    3319.5034 
   58800    1257.9026    101.82611      2204118          147  0.007193656    218.15517    3195.3128 
   58900     1292.163    104.63191      2204118          147  0.007193656    227.34962    3285.5935 
   59000    1334.2066     103.4023      2204118          147  0.007193656    201.42644    3359.1775 
   59100    1289.0767    106.17311      2204118          147  0.007193656     237.1871    3288.1263 
   59200    1217.6483    102.65755      2204118          147  0.007193656    237.19618    3119.0814 
   59300     1249.402    98.882447      2204118          147  0.007193656    198.03515    3155.0738 
   59400    1332.4765    104.82939      2204118          147  0.007193656    211.57627    3365.2327 
   59500    1319.1961    106.42033      2204118          147  0.007193656    226.23868    3348.4634 
   59600    1271.4988    106.35136      2204118          147  0.007193656    241.50175    3250.8383 
   59700    1275.8416    104.78181      2204118          147  0.007193656    227.40926    3247.0241 
   59800    1368.5818    109.38373      2204118          147  0.007193656    229.53538    3468.6445 
   59900     1377.565    101.21405      2204118          147  0.007193656    166.35214    3426.7223 
   60000    1286.3816     103.0038      2204118          147  0.007193656    213.03041     3257.591 
   60100    1280.1226    105.47314      2204118          147  0.007193656      234.264     3264.011 
   60200     1325.317    105.23887      2204118          147  0.007193656    217.30323    3354.0148 
   60300     1327.867    107.07319      2204118          147  0.007193656    230.70986    3373.4565 
   60400    1263.5494    99.262219      2204118          147  0.007193656    195.55044    3186.0726 
   60500    1245.0352    97.608564      2204118          147  0.007193656    190.99153     3137.695 
   60600     1304.221    103.74505      2204118          147  0.007193656    216.46146    3303.2436 
   60700    1328.6244    104.23442      2204118          147  0.007193656    210.82446    3355.3638 
   60800    1296.9864    106.22601      2204118          147  0.007193656    237.22561    3306.8853 
   60900    1289.5689    102.96565      2204118          147  0.007193656    213.76397    3265.8681 
   61000     1275.484     105.3146      2204118          147  0.007193656    234.92949    3253.6981 
   61100    1319.5299    110.79116      2204118          147  0.007193656    258.10112    3381.1158 
   61200    1355.6123    111.07624      2204118          147  0.007193656    245.22368    3453.6371 
   61300    1282.4395    109.71847      2204118          147  0.007193656    260.30536    3295.5359 
   61400     1259.055    107.93059      2204118          147  0.007193656    255.25669    3235.1417 
   61500    1307.6869    111.07237      2204118          147  0.007193656    262.80065     3357.786 
   61600    1355.2675    109.50962      2204118          147  0.007193656    234.74513    3442.3423 
   61700    1236.4018    105.58275      2204118          147  0.007193656    249.21292    3175.4832 
   61800    1223.6882    105.14416      2204118          147  0.007193656    250.62631    3146.8065 
   61900    1320.0775    105.52031      2204118          147  0.007193656    216.63674    3340.9476 
   62000    1321.5426    113.55208      2204118          147  0.007193656    275.22122    3402.9997 
   62100    1308.2314    111.25198      2204118          147  0.007193656    263.65275    3359.9266 
   62200    1269.1907    104.43616      2204118          147  0.007193656    228.19282    3232.0667 
   62300    1242.5572    103.58211      2204118          147  0.007193656    232.74906    3173.5878 
   62400    1331.8628    109.81952      2204118          147  0.007193656    247.11453    3399.3183 
   62500    1348.4497    111.05031      2204118          147  0.007193656    249.00676    3440.4679 
   62600     1307.827    105.34954      2204118          147  0.007193656    220.65498    3315.9717 
   62700    1272.1417    107.16483      2204118          147  0.007193656     246.9034    3257.7615 
   62800    1284.8163    112.35191      2204118          147  0.007193656    281.67447    3322.5304 
   62900    1331.8486      108.636      2204118          147  0.007193656    237.29468     3389.465 
   63000     1318.793    106.24554      2204118          147  0.007193656    226.01733    3347.2881 
   63100    1291.8377    107.30824      2204118          147  0.007193656    245.32241    3302.7964 
   63200    1288.7432    107.26132      2204118          147  0.007193656    246.42521    3296.5751 
   63300     1323.067    103.71951      2204118          147  0.007193656    207.23173    3338.6179 
   63400    1324.7487    110.70613      2204118          147  0.007193656    261.22427    3396.5908 
   63500    1334.9575    103.11434      2204118          147  0.007193656    201.30283    3360.8311 
   63600     1252.109    103.22013      2204118          147  0.007193656    232.44202    3195.8874 
   63700     1259.204    105.37345      2204118          147  0.007193656    244.56987    3224.8075 
   63800    1340.6401    108.94058      2204118          147  0.007193656    241.83175    3414.8095 
   63900    1341.3484    105.17907      2204118          147  0.007193656    215.75591    3390.4098 
   64000    1307.7644    100.68289      2204118          147  0.007193656    193.92393    3289.0925 
   64100    1277.4331    100.33919      2204118          147  0.007193656    201.33825      3224.72 
   64200    1290.8203    102.09706      2204118          147  0.007193656    207.44268    3262.5087 
   64300    1373.5094    110.46344      2204118          147  0.007193656    238.87445     3489.646 
   64400    1357.4618    111.57312      2204118          147  0.007193656    252.13609    3464.9268 
   64500    1310.0751    103.38316      2204118          147  0.007193656    208.02007    3308.6576 
   64600    1275.1112    105.03957      2204118          147  0.007193656     232.9319    3250.8182 
   64700    1287.1274     106.5858      2204118          147  0.007193656    236.53198    3282.8578 
   64800    1334.6271    114.41553      2204118          147  0.007193656    277.05345    3435.7997 
   64900    1363.1747    112.97417      2204118          147  0.007193656    256.37657    3482.6883 
   65000    1269.6437    103.22191      2204118          147  0.007193656    217.97527    3222.9213 
   65100    1262.7273    105.52944      2204118          147  0.007193656    239.21197    3227.7885 
   65200    1329.3749    105.24953      2204118          147  0.007193656    213.31688    3359.6324 
   65300     1325.601     106.7362      2204118          147  0.007193656    227.21502    3364.5988 
   65400    1263.4434    101.72342      2204118          147  0.007193656    212.81039    3203.0816 
   65500    1249.9238    98.048837      2204118          147  0.007193656    191.41234    3149.6859 
   65600    1353.6141    109.08462      2204118          147  0.007193656    237.64846    3441.3324 
   65700      1352.41    106.15006      2204118          147  0.007193656    215.93868     3416.773 
   65800    1279.2069    102.26114      2204118          147  0.007193656    212.72656    3240.3064 
   65900    1266.1978    102.42778      2204118          147  0.007193656    218.34613    3215.1364 
   66000    1325.3922    104.67404      2204118          147  0.007193656    216.22329    3353.1127 
   66100    1351.6097    102.99711      2204118          147  0.007193656    196.00367    3394.9437 
   66200    1242.2539    100.86927      2204118          147  0.007193656    219.03108    3159.1519 
   66300    1250.2766    99.669752      2204118          147  0.007193656    205.10085    3164.2094 
   66400    1290.5176    107.48491      2204118          147  0.007193656    247.01894    3301.3684 
   66500    1321.3551    114.55906      2204118          147  0.007193656    285.76962    3413.1043 
   66600    1326.9096     114.1718      2204118          147  0.007193656    279.85618    3420.3371 
   66700    1283.8907    103.96419      2204118          147  0.007193656    219.88541    3258.5508 
   66800    1233.5544    102.68944      2204118          147  0.007193656    229.88162    3149.4127 
   66900     1285.343    106.26668      2204118          147  0.007193656    237.48468    3279.5871 
   67000    1320.0653    105.87904      2204118          147  0.007193656    222.96089    3347.2428 
   67100    1303.6028    104.88471      2204118          147  0.007193656    222.25819    3307.5773 
   67200    1279.2828    104.05363      2204118          147  0.007193656    224.76839    3252.5277 
   67300    1295.6883    106.39506      2204118          147  0.007193656    236.46504    3303.0523 
   67400     1367.308    110.75989      2204118          147  0.007193656    243.41783    3479.5121 
   67500    1329.9152    104.79709      2204118          147  0.007193656    212.35833    3359.9527 
   67600    1267.6434    103.47401      2204118          147  0.007193656    223.96344    3224.1752 
   67700    1285.3523     107.6141      2204118          147  0.007193656    248.10542    3290.2299 
   67800    1336.3581     106.7364      2204118          147  0.007193656    222.53254    3385.3756 
   67900    1307.8115    106.18864      2204118          147  0.007193656    228.61452    3323.8946 
   68000    1216.8816    98.644054      2204118          147  0.007193656    205.28734    3085.3578 
   68100     1230.028    100.20293      2204118          147  0.007193656    212.06848    3123.2535 
   68200    1271.8581    107.39026      2204118          147  0.007193656    250.33376    3260.5206 
   68300    1334.0168    105.15768      2204118          147  0.007193656    210.99571    3368.2975 
   68400    1325.3387    105.25885      2204118          147  0.007193656    215.93776    3352.7007 
   68500    1251.4557     106.0667      2204118          147  0.007193656    247.99987     3209.899 
   68600    1273.1628    102.86871      2204118          147  0.007193656     214.5409    3227.8158 
   68700    1354.8476    112.76735      2204118          147  0.007193656    260.45611    3467.0596 
   68800    1368.8436    102.70907      2204118          147  0.007193656    180.89306    3420.6217 
   68900    1283.2007    104.13185      2204118          147  0.007193656    225.15486    3262.1871 
   69000    1293.8485    98.926843      2204118          147  0.007193656    182.41259    3244.6456 
   69100    1312.5127    99.226153      2204118          147  0.007193656    178.71251    3285.1192 
   69200    1310.3401    103.99112      2204118          147  0.007193656    214.21572    3315.4805 
   69300    1297.7215     107.7931      2204118          147  0.007193656    246.10652    3317.5059 
   69400    1282.2232    111.85246      2204118          147  0.007193656    281.89942    3316.6181 
   69500    1330.1834      104.693      2204118          147  0.007193656    209.73597     3357.965 
   69600    1297.5883    107.06855      2204118          147  0.007193656    240.22006    3311.3042 
   69700    1261.0336    102.64351      2204118          147  0.007193656     220.4726    3205.0405 
   69800    1267.5926    104.80928      2204118          147  0.007193656    236.25421    3236.3457 
   69900    1377.9162    99.646711      2204118          147  0.007193656    158.61359    3419.8149 
   70000    1315.7844    102.10063      2204118          147  0.007193656    199.76114    3313.9113 
   70100    1282.3165    101.21904      2204118          147  0.007193656    204.49564    3239.4351 
   70200    1287.1251    103.60395      2204118          147  0.007193656    218.82339    3265.1438 
   70300    1315.6113    105.76843      2204118          147  0.007193656     224.4126    3338.1531 
   70400    1312.2932      106.199      2204118          147  0.007193656    229.50719    3335.3944 
   70500    1225.8987    101.22831      2204118          147  0.007193656    223.92154    3125.3335 
   70600     1221.459    93.740774      2204118          147  0.007193656    171.23444    3062.1386 
   70700    1305.5161    96.942785      2204118          147  0.007193656    164.67487    3254.5222 
   70800    1309.4573    100.80575      2204118          147  0.007193656    191.69129    3290.8666 
   70900    1296.6862    104.09147      2204118          147  0.007193656    221.04484    3289.9939 
   71000    1318.3777    102.29187      2204118          147  0.007193656    200.34215      3320.63 
   71100    1305.1747     105.4785      2204118          147  0.007193656    230.84688    3319.8863 
   71200    1268.3477    101.28842      2204118          147  0.007193656     210.3551    3212.2337 
   71300    1264.4389    104.00634      2204118          147  0.007193656    231.76044    3224.3878 
   71400    1346.5459     106.4238      2204118          147  0.007193656    219.79667    3406.7518 
   71500    1334.7218     104.7668      2204118          147  0.007193656    211.43136    3370.4017 
   71600    1297.9529    96.293183      2204118          147  0.007193656    161.27556    3233.2227 
   71700    1281.5412    97.525254      2204118          147  0.007193656    174.64769    3207.7523 
   71800    1289.1771    104.18862      2204118          147  0.007193656     218.8561     3270.033 
   71900    1325.1695    109.76983      2204118          147  0.007193656     248.9917     3385.354 
   72000    1332.4794    105.19885      2204118          147  0.007193656    214.18054    3367.8436 
   72100    1235.7536    97.936037      2204118          147  0.007193656     195.3345    3120.0705 
   72200    1250.4409    100.73324      2204118          147  0.007193656    211.05824    3170.5558 
   72300    1310.5642     101.8156      2204118          147  0.007193656    197.41473    3299.2098 
   72400    1320.9954    104.94774      2204118          147  0.007193656    216.96994    3343.4531 
   72500    1302.7548    104.49991      2204118          147  0.007193656    220.28759    3303.5997 
   72600    1256.9051    94.723211      2204118          147  0.007193656    164.94955    3139.7463 
   72700    1226.0056    95.375665      2204118          147  0.007193656    181.20921    3082.8741 
   72800    1302.9933    104.08803      2204118          147  0.007193656    217.52844    3301.4049 
   72900    1308.2444    107.98479      2204118          147  0.007193656    242.82228     3339.127 
   73000    1301.7313    106.86306      2204118          147  0.007193656    236.16967    3317.0593 
   73100    1313.4949    99.063746      2204118          147  0.007193656    174.68913    3283.4205 
   73200    1231.8103    101.34545      2204118          147  0.007193656    222.95318    3138.3564 
   73300    1237.3795    103.98656      2204118          147  0.007193656    237.40886    3165.9931 
   73400    1321.2885    112.05975      2204118          147  0.007193656    264.23421    3391.4111 
   73500    1335.2841    109.29712      2204118          147  0.007193656    238.86601    3399.1673 
   73600    1270.8801    108.36972      2204118          147  0.007193656    255.51221    3263.3844 
   73700    1269.0341    105.96775      2204118          147  0.007193656     238.6838    3242.1869 
   73800    1338.2539    106.98489      2204118          147  0.007193656    221.56522    3388.8953 
   73900    1407.8966    112.21171      2204118          147  0.007193656    235.18091    3567.3387 
   74000    1342.9841    106.45469      2204118          147  0.007193656    217.18299    3395.7083 
   74100    1260.3702    104.92041      2204118          147  0.007193656    238.15505    3221.1528 
   74200    1295.8813     99.65457      2204118          147  0.007193656    185.96957    3253.0137 
   74300    1308.1457    106.61388      2204118          147  0.007193656    234.34515    3330.4163 
   74400    1357.2572     100.7144      2204118          147  0.007193656    171.38092    3383.6874 
   74500    1257.6177    103.28862      2204118          147  0.007193656    227.40334    3203.8866 
   74600    1257.5148    96.897012      2204118          147  0.007193656    176.89668    3153.1363 
   74700    1300.4339    103.19113      2204118          147  0.007193656    206.78935    3284.6084 
   74800    1315.0427     107.0623      2204118          147  0.007193656    228.27163    3340.6662 
   74900    1305.9337    108.73454      2204118          147  0.007193656    244.71819    3335.5539 
   75000    1321.1875     99.77413      2204118          147  0.007193656    173.93428    3300.8722 
   75100    1271.6203    100.59333      2204118          147  0.007193656    199.42347    3209.0476 
   75200    1274.9928    103.15105      2204118          147  0.007193656    218.73528    3236.3412 
   75300     1366.334    108.57972      2204118          147  0.007193656    227.59014    3461.3791 
   75400    1315.6018    109.68014      2204118          147  0.007193656    253.44422    3367.1621 
   75500    1266.1025    107.39789      2204118          147  0.007193656     253.7014    3250.2661 
   75600    1305.1629    102.05656      2204118          147  0.007193656    197.39006    3286.4015 
   75700    1305.9104    116.18921      2204118          147  0.007193656     301.3174     3392.098 
   75800    1406.7342    117.16776      2204118          147  0.007193656    271.55202    3600.9587 
   75900    1350.0543    105.88955      2204118          147  0.007193656    209.29748    3404.5563 
[...]
  381700    1350.4252      109.713      2204118          147  0.007193656    238.11587    3434.2526 
  381800    1332.5886    112.13923      2204118          147  0.007193656    263.58214    3417.5038 
  381900    1316.6586    102.90722      2204118          147  0.007193656    201.08218    3317.3013 
  382000    1271.5038    105.32819      2204118          147  0.007193656    236.93147    3246.2799 
  382100    1303.1642     100.7547      2204118          147  0.007193656    191.48077    3275.7618 
  382200     1312.446    103.41303      2204118          147  0.007193656    210.06895    3316.3179 
  382300    1309.1708    110.15089      2204118          147  0.007193656    261.25033    3359.7477 
  382400    1312.4265    106.99677      2204118          147  0.007193656    234.73537     3340.938 
  382500    1277.0161    103.75927      2204118          147  0.007193656    223.29182    3245.6866 
  382600    1277.8326    100.77633      2204118          147  0.007193656    201.72055    3226.0478 
  382700     1329.989    102.49569      2204118          147  0.007193656     196.3122    3344.0811 
  382800    1354.4503    106.70573      2204118          147  0.007193656    218.03678    3423.6998 
  382900    1253.4555    108.34853      2204118          147  0.007193656    264.98062    3231.6129 
  383000    1241.4537    106.58772      2204118          147  0.007193656    253.71676    3191.9436 
  383100    1297.4226     110.4777      2204118          147  0.007193656    263.63554    3334.3277 
  383200    1326.3982    107.86113      2204118          147  0.007193656    234.13569     3373.406 
  383300    1289.0206     110.0565      2204118          147  0.007193656     264.1769    3314.9834 
  383400    1280.7707    107.10018      2204118          147  0.007193656    242.93873    3274.2196 
  383500    1314.5709    108.87734      2204118          147  0.007193656    242.44363    3353.7217 
  383600    1365.8824    113.08225      2204118          147  0.007193656     254.8175    3487.5377 
  383700    1302.9325     112.1911      2204118          147  0.007193656    271.09023    3354.8229 
  383800     1261.673    109.01832      2204118          147  0.007193656    262.10545    3248.1867 
  383900    1280.3909    112.75687      2204118          147  0.007193656    284.64637    3315.0284 
  384000    1322.1796    114.29675      2204118          147  0.007193656     281.3532    3410.6393 
  384100    1311.4521    115.78362      2204118          147  0.007193656    298.45627    3402.3529 
  384200    1248.4123     97.73896      2204118          147  0.007193656    189.67209    3144.3683 
  384300    1238.5864    91.853748      2204118          147  0.007193656    150.33598    3081.7766 
  384400    1292.3829    103.95854      2204118          147  0.007193656    221.18827    3279.9525 
  384500    1332.4351    107.65749      2204118          147  0.007193656    232.58896    3386.1473 
  384600    1304.4854    109.30519      2204118          147  0.007193656    256.53129    3343.9394 
  384700    1286.6324    96.152478      2204118          147  0.007193656    164.65213    3209.8064 
  384800    1213.3649    102.34614      2204118          147  0.007193656      237.888    3109.6353 
  384900    1326.1395    106.35268      2204118          147  0.007193656    224.82246    3363.4807 
  385000    1333.4023    107.14263      2204118          147  0.007193656    228.34392    3384.1913 
  385100    1275.3744    107.42594      2204118          147  0.007193656    253.99027    3272.4995 
  385200    1285.3308    98.306976      2204118          147  0.007193656    183.40972    3225.4833 
  385300    1288.2226    100.89224      2204118          147  0.007193656    202.01659    3250.9343 
  385400    1353.0545    102.92734      2204118          147  0.007193656    191.46143     3393.821 
  385500    1337.3801    105.13602      2204118          147  0.007193656    212.33854    3377.6005 
  385600    1241.8169    105.56827      2204118          147  0.007193656     251.3589    3190.4453 
  385700    1277.9901    101.28582      2204118          147  0.007193656    206.04159    3230.7414 
  385800    1311.9818    103.72419      2204118          147  0.007193656    210.87682    3316.0271 
  385900     1294.194    109.62603      2204118          147  0.007193656    260.89167    3323.9423 
  386000    1309.7904    106.79829      2204118          147  0.007193656    235.03197    3334.9957 
  386100    1320.4096    98.381765      2204118          147  0.007193656    168.73103    3293.8278 
  386200    1240.2512    98.918634      2204118          147  0.007193656    201.60283    3136.9837 
  386300    1205.6469    101.86454      2204118          147  0.007193656    234.65137     3088.132 
  386400    1325.8833     106.4177      2204118          147  0.007193656    224.08031    3362.1321 
  386500    1325.9882    108.30788      2204118          147  0.007193656    237.77379    3376.0739 
  386600    1266.7177    108.64731      2204118          147  0.007193656    260.54097    3258.5618 
  386700    1257.4812    111.36296      2204118          147  0.007193656    284.69826    3260.8585 
  386800     1363.721    108.18802      2204118          147  0.007193656    223.42368    3451.0282 
  386900     1347.285    106.30476      2204118          147  0.007193656    215.97894    3404.6836 
  387000    1288.2036    105.57201      2204118          147  0.007193656     232.5583    3281.4313 
  387100    1293.7831    104.20408      2204118          147  0.007193656    219.96662    3282.0448 
  387200    1299.1962    107.47661      2204118          147  0.007193656    242.52245    3317.4123 
  387300    1333.1803    106.02836      2204118          147  0.007193656    218.78789    3374.1098 
  387400    1309.1509    104.88821      2204118          147  0.007193656    219.25326    3317.7033 
  387500     1241.044     104.7824      2204118          147  0.007193656    243.96884     3181.226 
  387600    1301.4077    99.380892      2204118          147  0.007193656    181.01512    3261.1389 
  387700    1342.8628    108.40994      2204118          147  0.007193656    233.38462    3411.6227 
  387800    1304.4831    111.10189      2204118          147  0.007193656    265.94451     3353.347 
  387900    1212.6141    104.13336      2204118          147  0.007193656    245.38959    3115.3599 
  388000    1257.0673    106.58032      2204118          147  0.007193656     249.2183    3224.3989 
  388100    1309.4789    107.15943      2204118          147  0.007193656    235.63797    3334.8645 
  388200     1313.135    107.95475      2204118          147  0.007193656     240.3161    3348.1956 
  388300    1296.6912    102.35109      2204118          147  0.007193656    204.33192    3273.2929 
  388400    1223.0412    99.978005      2204118          147  0.007193656    214.46681    3109.1156 
  388500    1278.7294    98.472291      2204118          147  0.007193656    183.30565    3209.7552 
  388600    1342.1134    105.76221      2204118          147  0.007193656    214.86036     3391.325 
  388700    1318.3129     104.7525      2204118          147  0.007193656    216.35032    3336.4847 
  388800    1283.0147    101.56756      2204118          147  0.007193656    207.88439    3244.4763 
  388900     1277.541    97.809536      2204118          147  0.007193656    183.60518    3207.2421 
  389000    1308.9592    96.520104      2204118          147  0.007193656    161.14639    3259.1428 
  389100    1351.3742    101.38768      2204118          147  0.007193656    182.77057    3381.1532 
  389200    1321.3457    99.062417      2204118          147  0.007193656    176.59248    3303.9048 
  389300    1262.9026     94.17932      2204118          147  0.007193656    159.06537    3148.0568 
  389400    1260.9252    101.48245      2204118          147  0.007193656    212.33946    3196.6508 
  389500    1309.5088    107.28084      2204118          147  0.007193656    236.61695    3335.9142 
  389600    1327.1991    104.37802      2204118          147  0.007193656    207.49702    3348.6629 
  389700    1292.7092    105.72189      2204118          147  0.007193656    230.40499    3289.9416 
  389800    1283.0268    104.29954      2204118          147  0.007193656    223.53177    3260.1524 
  389900    1295.8624    109.20816      2204118          147  0.007193656    255.44898    3322.4484 
  390000    1372.8947    110.62316      2204118          147  0.007193656    237.54065    3486.8572 
  390100    1316.2449    110.77772      2204118          147  0.007193656    259.32801     3374.568 
  390200    1277.1221    105.44913      2204118          147  0.007193656    233.86798    3256.5136 
  390300    1286.4863    107.88851      2204118          147  0.007193656    250.99239    3295.8007 
  390400    1339.8388    102.70586      2204118          147  0.007193656     194.0734    3365.1545 
  390500     1266.563    101.26504      2204118          147  0.007193656    211.44066    3209.0953 
  390600    1240.4569    90.505105      2204118          147  0.007193656    139.31444    3075.1822 
  390700    1279.4704     100.1342      2204118          147  0.007193656    196.87206    3225.0754 
  390800    1321.7209    103.34883      2204118          147  0.007193656    203.39291    3331.5932 
  390900    1310.3628    107.09224      2204118          147  0.007193656    235.29776    3336.6163 
  391000    1310.0978    100.97232      2204118          147  0.007193656    191.16233    3291.8536 
  391100    1216.7282    100.28904      2204118          147  0.007193656    221.26782    3100.9753 
  391200    1256.4009    100.11679      2204118          147  0.007193656    205.45328    3179.0567 
  391300    1325.4615    102.70781      2204118          147  0.007193656    201.14756    3338.2009 
  391400    1310.8358    100.96299      2204118          147  0.007193656    193.11439    3295.5524 
  391500     1259.493    103.84802      2204118          147  0.007193656    233.26317    3214.1849 
  391600    1276.4784    109.90807      2204118          147  0.007193656     273.2565    3294.3786 
  391700    1378.8856    108.44203      2204118          147  0.007193656     223.2301    3486.7257 
  391800    1328.1914    106.35207      2204118          147  0.007193656     226.2167    3369.7311 
  391900    1285.0375    105.17604      2204118          147  0.007193656     234.2452    3275.6247 
  392000    1302.7254    100.03458      2204118          147  0.007193656    190.88651     3274.129 
  392100    1315.9206    96.124601      2204118          147  0.007193656    156.96489    3271.4372 
  392200    1252.0524    98.499667      2204118          147  0.007193656    197.21875    3160.5302 
  392300    1237.4408    96.460143      2204118          147  0.007193656    184.70449    3113.4338 
  392400    1310.8937    104.30481      2204118          147  0.007193656    214.51084    3317.0859 
  392500    1334.5888    107.74703      2204118          147  0.007193656    230.51046     3389.166 
  392600    1297.2809    106.30443      2204118          147  0.007193656    234.75692    3305.1136 
  392700    1276.6331    99.549301      2204118          147  0.007193656    192.85185      3214.34 
  392800    1270.2986    102.89911      2204118          147  0.007193656    221.06516    3227.5611 
  392900    1372.7139    106.74538      2204118          147  0.007193656    210.91767    3459.8064 
  393000    1326.2777    109.21274      2204118          147  0.007193656    246.61414    3385.5994 
  393100    1263.8349     104.6892      2204118          147  0.007193656    235.55179    3226.7496 
  393200    1293.7353    97.351515      2204118          147  0.007193656    169.69429    3231.6594 
  393300    1308.2836    102.68321      2204118          147  0.007193656    204.01949    3300.4169 
  393400    1361.8341    111.64374      2204118          147  0.007193656    248.92664    3472.0655 
  393500    1358.6965    112.81746      2204118          147  0.007193656    257.25032    3472.9633 
  393600    1286.0112    102.42308      2204118          147  0.007193656    205.11894     3248.803 
  393700    1268.7282    105.20393      2204118          147  0.007193656    232.95832    3235.7374 
  393800    1314.2537    105.77579      2204118          147  0.007193656    220.02119    3330.5485 
  393900    1317.5936     111.3401      2204118          147  0.007193656    259.59699    3378.0291 
  394000    1291.1975    106.70457      2204118          147  0.007193656    234.87049    3290.8291 
  394100    1245.6012    98.535827      2204118          147  0.007193656    193.05874    3141.1017 
  394200    1258.3069    101.74429      2204118          147  0.007193656    212.64346     3190.758 
  394300    1326.3058    111.28352      2204118          147  0.007193656    260.27022    3399.3219 
  394400    1341.0233    105.44027      2204118          147  0.007193656    213.93073    3387.8153 
  394500     1298.761    99.237105      2204118          147  0.007193656    184.38704    3258.2468 
  394600    1264.7217    100.69614      2204118          147  0.007193656    205.57918     3198.876 
  394700    1281.6861    108.51543      2204118          147  0.007193656    255.85552    3289.3029 
  394800    1340.7263    106.33975      2204118          147  0.007193656    217.42197    3390.6037 
  394900    1322.5736    103.05192      2204118          147  0.007193656    198.73089    3328.9493 
  395000    1264.6656    108.77191      2204118          147  0.007193656    264.54168    3257.7058 
  395100    1316.9254    100.12872      2204118          147  0.007193656    181.28914    3298.1398 
  395200    1321.6889    102.90191      2204118          147  0.007193656    201.55767    3329.6822 
  395300    1280.5685    104.16906      2204118          147  0.007193656     225.3447     3256.147 
  395400    1251.2804    102.69656      2204118          147  0.007193656    223.60406    3185.0884 
  395500    1325.4153    101.48766      2204118          147  0.007193656    187.70834    3324.6525 
  395600    1352.8719    103.43478      2204118          147  0.007193656    191.84343    3393.7708 
  395700     1280.164    102.98181      2204118          147  0.007193656    213.40091    3243.2459 
  395800    1231.2136    109.29342      2204118          147  0.007193656    277.57546    3191.5664 
  395900    1271.6194    114.89502      2204118          147  0.007193656    304.64369    3314.2656 
  396000    1331.9184    104.57959      2204118          147  0.007193656    206.83609    3359.1715 
  396100    1286.1107    107.27251      2204118          147  0.007193656     246.8184    3290.7378 
  396200    1274.8325    101.27733      2204118          147  0.007193656    206.55665    3223.7832 
  396300     1298.146    96.549039      2204118          147  0.007193656    160.73934    3233.1434 
  396400    1287.3838    113.82154      2204118          147  0.007193656    293.76109    3340.6937 
  396500    1372.5903    111.97535      2204118          147  0.007193656    248.32288    3496.9191 
  396600    1319.0758    106.00109      2204118          147  0.007193656    223.34842    3345.2884 
  396700    1283.7001    103.94377      2204118          147  0.007193656    221.41272    3259.6268 
  396800    1288.0739    105.02558      2204118          147  0.007193656    227.36831    3275.9343 
  396900    1313.4536    109.10401      2204118          147  0.007193656    248.70551    3357.3392 
  397000    1371.1578    109.47673      2204118          147  0.007193656    231.28678    3476.4926 
  397100    1310.7622    105.80812      2204118          147  0.007193656    224.37522     3326.639 
  397200    1240.2397    107.22209      2204118          147  0.007193656    260.22935     3195.583 
  397300    1292.4028    109.08245      2204118          147  0.007193656    255.43975    3314.2512 
  397400    1342.4357     109.3227      2204118          147  0.007193656    239.04603    3416.2734 
  397500    1312.5438    107.85183      2204118          147  0.007193656    240.17537    3346.6558 
  397600    1237.7547    100.65112      2204118          147  0.007193656    213.78357    3143.2559 
  397700     1232.524    99.261245      2204118          147  0.007193656    205.21211    3122.3045 
  397800    1328.2641     114.5273      2204118          147  0.007193656     286.7551    3430.4416 
  397900    1340.2432    103.41329      2204118          147  0.007193656    200.44721    3372.4855 
  398000    1273.5002    95.486503      2204118          147  0.007193656    167.41604    3181.4893 
  398100    1264.3223    93.085773      2204118          147  0.007193656    152.76546    3145.1169 
  398200    1312.6216    97.713393      2204118          147  0.007193656    168.57176    3275.2362 
  398300    1336.0741    106.04078      2204118          147  0.007193656    221.41446    3383.5855 
  398400    1308.0779    103.39738      2204118          147  0.007193656    210.57781    3306.4885 
  398500    1222.8403    96.506668      2204118          147  0.007193656    190.91486    3085.0883 
  398600    1262.8687    98.240027      2204118          147  0.007193656    188.11743    3177.0285 
  398700    1291.4641     108.7672      2204118          147  0.007193656    253.71868    3310.3085 
  398800    1312.4098    112.40209      2204118          147  0.007193656    271.52743    3377.6906 
  398900    1334.8102    106.42241      2204118          147  0.007193656    219.07223    3378.2518 
  399000    1249.5193    104.64964      2204118          147  0.007193656    238.08054    3195.3967 
  399100    1238.9136    98.318332      2204118          147  0.007193656    193.81768    3126.0328 
  399200    1291.9808    106.77276      2204118          147  0.007193656    238.78815    3296.6008 
  399300    1315.1689    106.24527      2204118          147  0.007193656    226.38302    3339.0764 
  399400    1297.9786    105.75544      2204118          147  0.007193656    228.77486    3300.7828 
  399500    1268.8143    107.58523      2204118          147  0.007193656    253.93319    3256.9161 
  399600    1330.6693    99.724736      2204118          147  0.007193656     176.2407    3325.6198 
  399700    1357.3834    96.382315      2204118          147  0.007193656    144.60127    3357.2064 
  399800    1261.9292    93.631121      2204118          147  0.007193656    157.76123    3144.4489 
  399900    1234.9493    101.52507      2204118          147  0.007193656    226.10213    3148.9348 
  400000    1301.1483    104.80801      2204118          147  0.007193656    223.96173    3303.4716 
  400100    1324.4454    103.82314      2204118          147  0.007193656    208.49391    3343.1425 
Loop time of 26.9422 on 1 procs for 400000 steps with 795 atoms

Performance: 320.687 ns/day, 0.075 hours/ns, 14846.610 timesteps/s
96.5% CPU use with 1 MPI tasks x no OpenMP threads

MPI task timing breakdown:
Section |  min time  |  avg time  |  max time  |%varavg| %total
---------------------------------------------------------------
Pair    | 11.591     | 11.591     | 11.591     |   0.0 | 43.02
Neigh   | 5.8182     | 5.8182     | 5.8182     |   0.0 | 21.60
Comm    | 0.97278    | 0.97278    | 0.97278    |   0.0 |  3.61
Output  | 1.757      | 1.757      | 1.757      |   0.0 |  6.52
Modify  | 6.0928     | 6.0928     | 6.0928     |   0.0 | 22.61
Other   |            | 0.7108     |            |       |  2.64

Nlocal:            795 ave         795 max         795 min
Histogram: 1 0 0 0 0 0 0 0 0 0
Nghost:            143 ave         143 max         143 min
Histogram: 1 0 0 0 0 0 0 0 0 0
Neighs:           1637 ave        1637 max        1637 min
Histogram: 1 0 0 0 0 0 0 0 0 0

Total # of neighbors = 1637
Ave neighs/atom = 2.0591195
Neighbor list builds = 19051
Dangerous builds = 20

write_data graphene_single_layer_LJ_795C_after_temp_1300K.data
System init for write_data ...
  generated 0 of 0 mixed pair_coeff terms from geometric mixing rule
Total wall time: 0:00:27
