# System definition
read_data graphene_single_layer_x-45_y-45_795_C.data
Reading data file ...
  orthogonal box = (-51 -51 -51) to (96 96 51)
  1 by 1 by 1 MPI processor grid
  reading atoms ...
  795 atoms
  read_data CPU = 0.015 seconds
pair_style lj/cut 6
pair_coeff      1 1 0.066047 3.4

# Virtual force wall to keep the cylinder shape
#region myCylinder cylinder z 0. 0. 20.3 -22.079997 505.920003 units box
#fix wall all wall/region myCylinder lj93 1.0 1.0 2.5

# Minimization
timestep 0.25
thermo 100
thermo_style custom step temp press vol lx density pe etotal
dump 2 all custom 1000 graphene_single_layer_LJ_795C_after_temp_300K.lammpstrj id type x y z
min_style cg
minimize 1.0e-6 1.0e-6 100 1000
WARNING: Using 'neigh_modify every 1 delay 0 check yes' setting during minimization (../min.cpp:187)
  generated 0 of 0 mixed pair_coeff terms from geometric mixing rule
Neighbor list info ...
  update every 1 steps, delay 0 steps, check yes
  max neighbors/atom: 10000, page size: 100000
  master list distance cutoff = 6.4
  ghost atom cutoff = 6.4
  binsize = 3.2, bins = 46 46 32
  1 neighbor lists, perpetual/occasional/extra = 1 0 0
  (1) pair lj/cut, perpetual
      attributes: half, newton on
      pair build: half/bin/atomonly/newton
      stencil: half/bin/3d
      bin: standard
Per MPI rank memory allocation (min/avg/max) = 5.96 | 5.96 | 5.96 Mbytes
Step Temp Press Volume Lx Density PotEng TotEng 
       0            0    1335313.5      2204118          147  0.007193656     10699602     10699602 
     100            0     61841.43      2204118          147  0.007193656    488621.59    488621.59 
Loop time of 0.0782312 on 1 procs for 100 steps with 795 atoms

100.0% CPU use with 1 MPI tasks x no OpenMP threads

Minimization stats:
  Stopping criterion = max iterations
  Energy initial, next-to-last, final = 
      10699602.3573369   495470.853828546   488621.590421788
  Force two-norm initial, final = 694694.42 29375.63
  Force max component initial, final = 79169.705 9280.0147
  Final line search alpha, max atom move = 3.8811533e-05 0.36017159
  Iterations, force evaluations = 100 117

MPI task timing breakdown:
Section |  min time  |  avg time  |  max time  |%varavg| %total
---------------------------------------------------------------
Pair    | 0.051874   | 0.051874   | 0.051874   |   0.0 | 66.31
Neigh   | 0.021633   | 0.021633   | 0.021633   |   0.0 | 27.65
Comm    | 0.0005223  | 0.0005223  | 0.0005223  |   0.0 |  0.67
Output  | 6.8e-05    | 6.8e-05    | 6.8e-05    |   0.0 |  0.09
Modify  | 0          | 0          | 0          |   0.0 |  0.00
Other   |            | 0.004134   |            |       |  5.28

Nlocal:            795 ave         795 max         795 min
Histogram: 1 0 0 0 0 0 0 0 0 0
Nghost:              0 ave           0 max           0 min
Histogram: 1 0 0 0 0 0 0 0 0 0
Neighs:          13073 ave       13073 max       13073 min
Histogram: 1 0 0 0 0 0 0 0 0 0

Total # of neighbors = 13073
Ave neighs/atom = 16.444025
Neighbor list builds = 35
Dangerous builds = 0
#timestep 0.25
fix 1 all nvt temp 300.0 300.0 $(100.0*dt)
fix 1 all nvt temp 300.0 300.0 25
run 400000
  generated 0 of 0 mixed pair_coeff terms from geometric mixing rule
Per MPI rank memory allocation (min/avg/max) = 4.835 | 4.835 | 4.835 Mbytes
Step Temp Press Volume Lx Density PotEng TotEng 
     100            0     61841.43      2204118          147  0.007193656    488621.59    488621.59 
     200      14787.7    24734.031      2204118          147  0.007193656    187585.17    222584.16 
     300    5630.5128    13594.896      2204118          147  0.007193656    103005.62    116331.71 
     400     3208.243     9123.939      2204118          147  0.007193656    68728.228     76321.38 
     500    2109.5533    6753.2252      2204118          147  0.007193656    50557.056    55549.869 
     600    1537.8089     5287.611      2204118          147  0.007193656    39324.288    42963.918 
     700    1188.2864    4292.3368      2204118          147  0.007193656    31708.159    34520.552 
     800    957.17365    3576.1722      2204118          147  0.007193656    26238.591    28503.994 
     900    796.68707    3037.1927      2204118          147  0.007193656    22130.486    24016.056 
    1000    680.02855    2617.9875      2204118          147  0.007193656    18942.364    20551.831 
    1100    592.69097    2283.4252      2204118          147  0.007193656    16403.637    17806.396 
    1200    525.98915    2010.6788      2204118          147  0.007193656    14338.646    15583.538 
    1300    474.24733    1784.3301      2204118          147  0.007193656    12628.925    13751.356 
    1400    433.67377    1593.6401      2204118          147  0.007193656    11191.839    12218.242 
    1500    401.83647    1430.8274      2204118          147  0.007193656    9967.6518    10918.704 
    1600    376.80585    1290.1525      2204118          147  0.007193656    8912.2724    9804.0826 
    1700    357.04763    1167.4154      2204118          147  0.007193656    7993.6533    8838.7005 
    1800    341.43616    1059.4934      2204118          147  0.007193656    7187.8705     7995.969 
    1900    329.24044    963.99206      2204118          147  0.007193656    6476.6741    7255.9083 
    2000    319.90534    879.01306      2204118          147  0.007193656    5845.5602    6602.7004 
    2100    313.03946    802.96605      2204118          147  0.007193656    5282.3197      6023.21 
    2200    308.21189    734.51005      2204118          147  0.007193656     4776.721    5506.1856 
    2300    304.76217    672.60459      2204118          147  0.007193656    4320.9782     5042.278 
    2400    302.14531    616.48012      2204118          147  0.007193656     3909.314    4624.4203 
    2500    300.23643    565.51064      2204118          147  0.007193656    3536.8706    4247.4591 
    2600    299.02524    519.13622      2204118          147  0.007193656    3199.3123    3907.0343 
    2700    298.33535    476.86071      2204118          147  0.007193656    2892.9492    3599.0383 
    2800    297.89778    438.24421      2204118          147  0.007193656    2614.4119    3319.4654 
    2900    297.56431    402.91897      2204118          147  0.007193656    2360.7964    3065.0607 
    3000    297.35675    370.60765      2204118          147  0.007193656    2130.1318    2833.9048 
    3100     297.3204    341.02556      2204118          147  0.007193656     1920.056     2623.743 
    3200    297.39635    313.92627      2204118          147  0.007193656    1728.7054    2432.5722 
    3300    297.47797    289.08925      2204118          147  0.007193656    1554.4292    2258.4891 
    3400    297.54758    266.32403      2204118          147  0.007193656    1395.7983     2100.023 
    3500    297.66138    245.45598      2204118          147  0.007193656     1251.456      1955.95 
    3600    297.83161    226.31753      2204118          147  0.007193656    1120.0755    1824.9724 
    3700    297.99758    208.74477      2204118          147  0.007193656    1000.3046    1705.5943 
    3800    298.11431    192.60252      2204118          147  0.007193656    891.11093    1596.6769 
    3900    298.21928    177.77113      2204118          147  0.007193656    791.54431    1497.3587 
    4000    298.35826    164.14425      2204118          147  0.007193656    700.78744    1406.9308 
    4100    298.51338    151.62537      2204118          147  0.007193656    618.15817    1324.6687 
    4200     298.6335    140.11307      2204118          147  0.007193656    542.83465    1249.6294 
    4300     298.7122    129.51808      2204118          147  0.007193656     474.0827    1181.0637 
    4400    298.79902    119.77667      2204118          147  0.007193656    411.48179    1118.6683 
    4500    298.91287    110.82259      2204118          147  0.007193656    354.53136    1061.9873 
    4600     299.0126    102.59358      2204118          147  0.007193656    302.78004    1010.4721 
    4700     299.0691    95.030629      2204118          147  0.007193656    255.76766    963.59339 
    4800    299.12278    88.096168      2204118          147  0.007193656    213.31908    921.27187 
    4900    299.21611    81.729766      2204118          147  0.007193656    174.87508    883.04876 
    5000    299.32957    75.878324      2204118          147  0.007193656    140.06177    848.50397 
    5100    299.42707     70.48042      2204118          147  0.007193656    108.42854    817.10151 
    5200    299.46792    65.502629      2204118          147  0.007193656    79.865438     788.6351 
    5300    299.45481    60.903136      2204118          147  0.007193656    53.906485     762.6451 
    5400    299.47831    56.674135      2204118          147  0.007193656    30.577378    739.37162 
    5500    299.56759      52.7755      2204118          147  0.007193656    9.4337254    718.43927 
    5600    299.63472    49.192092      2204118          147  0.007193656   -9.4906215     699.6738 
    5700    299.62338    45.900799      2204118          147  0.007193656   -26.350625    682.78696 
    5800    299.60565     42.88234      2204118          147  0.007193656   -41.350686    667.74493 
    5900     299.6595    40.122631      2204118          147  0.007193656   -54.619452    654.60362 
    6000    299.73435    37.593388      2204118          147  0.007193656   -66.441387    642.95883 
    6100    299.73711     35.28622      2204118          147  0.007193656   -76.754089    632.65267 
    6200    299.71485    33.179301      2204118          147  0.007193656   -85.766396    623.58768 
    6300    299.79142    31.235036      2204118          147  0.007193656   -93.875161    615.66013 
    6400    299.89284    29.439126      2204118          147  0.007193656   -101.05201    608.72332 
    6500    299.83936    27.775494      2204118          147  0.007193656   -107.46084    602.18791 
    6600     299.7364    26.251829      2204118          147  0.007193656   -113.00582    596.39927 
    6700     299.8097    24.845187      2204118          147  0.007193656    -118.0471    591.53146 
    6800    299.97825    23.539307      2204118          147  0.007193656   -122.61418     587.3633 
    6900    299.96656    22.329052      2204118          147  0.007193656   -126.53508    583.41473 
    7000    299.79018    21.210081      2204118          147  0.007193656    -129.9214    579.61095 
    7100    299.75585    20.198039      2204118          147  0.007193656    -132.7223    576.72882 
    7200    299.94908    19.285306      2204118          147  0.007193656   -135.01704    574.89139 
    7300    300.07471     18.44234      2204118          147  0.007193656   -136.92632    573.27946 
    7400    299.94226    17.652082      2204118          147  0.007193656   -138.49261    571.39968 
    7500    299.78362    16.919508      2204118          147  0.007193656   -139.78879    569.72803 
    7600    299.86924    16.263188      2204118          147  0.007193656   -140.71292    569.00656 
    7700    300.06005    15.670931      2204118          147  0.007193656   -141.33067    568.84042 
    7800    300.04396    15.123364      2204118          147  0.007193656   -141.66966    568.46334 
    7900    299.86147     14.61859      2204118          147  0.007193656   -141.74201    567.95908 
    8000    299.83391    14.165032      2204118          147  0.007193656   -141.61031    568.02554 
    8100    300.01956    13.759735      2204118          147  0.007193656   -141.31555    568.75971 
    8200    300.11429     13.38739      2204118          147  0.007193656   -140.82378    569.47567 
    8300    299.96376    13.034977      2204118          147  0.007193656   -140.20205    569.74113 
    8400    299.82588    12.715089      2204118          147  0.007193656    -139.4358    570.18106 
    8500    299.93698    12.437817      2204118          147  0.007193656    -138.5347     571.3451 
    8600    300.11331    12.190576      2204118          147  0.007193656   -137.54203     572.7551 
    8700    300.06069      11.9589      2204118          147  0.007193656   -136.44264    573.72996 
    8800    299.87206    11.745594      2204118          147  0.007193656   -135.24901    574.47714 
    8900    299.87024    11.565588      2204118          147  0.007193656   -133.95653    575.76531 
    9000    300.06271    11.415802      2204118          147  0.007193656   -132.60149    577.57588 
    9100    300.12825    11.278244      2204118          147  0.007193656   -131.20221    579.13028 
    9200    299.95894    11.148152      2204118          147  0.007193656   -129.73401    580.19776 
    9300    299.84367    11.037734      2204118          147  0.007193656   -128.21458    581.44437 
    9400    299.97996     10.95478      2204118          147  0.007193656   -126.65963    583.32189 
    9500    300.14026    10.886312      2204118          147  0.007193656   -125.08301    585.27791 
    9600    300.05644    10.817176      2204118          147  0.007193656   -123.50138    586.66114 
    9700    299.87306    10.753793      2204118          147  0.007193656   -121.90761    587.82091 
    9800    299.90326    10.709789      2204118          147  0.007193656   -120.31137    589.48861 
    9900    300.09935    10.682959      2204118          147  0.007193656   -118.69486    591.56923 
   10000    300.13161    10.653406      2204118          147  0.007193656   -117.11246      593.228 
   10100    299.94486    10.620468      2204118          147  0.007193656   -115.53005    594.36841 
   10200    299.85369    10.599339      2204118          147  0.007193656   -113.95458     595.7281 
   10300    300.01146    10.597825      2204118          147  0.007193656    -112.3833    597.67278 
   10400    300.15173    10.602407      2204118          147  0.007193656   -110.82309    599.56497 
   10500    300.03783    10.601673      2204118          147  0.007193656   -109.26727    600.85121 
   10600    299.86316    10.605461      2204118          147  0.007193656   -107.70316    602.00192 
   10700    299.92428     10.62542      2204118          147  0.007193656    -106.1688    603.68093 
   10800    300.12025    10.657652      2204118          147  0.007193656   -104.63495    605.67862 
   10900    300.12215    10.684014      2204118          147  0.007193656   -103.12427    607.19379 
   11000    299.92759    10.703142      2204118          147  0.007193656   -101.64913    608.20845 
   11100    299.86549    10.731742      2204118          147  0.007193656   -100.19402    609.51658 
   11200    300.04145      10.7747      2204118          147  0.007193656   -98.759857    611.36719 
   11300    300.15888    10.817812      2204118          147  0.007193656   -97.338636    613.06635 
   11400     300.0188    10.847722      2204118          147  0.007193656    -95.98898    614.08448 
   11500    299.85733    10.879504      2204118          147  0.007193656   -94.651338    615.03994 
   11600    299.94744     10.92537      2204118          147  0.007193656   -93.343191    616.56136 
   11700     300.1375    10.977746      2204118          147  0.007193656   -92.064394    618.28998 
   11800    300.10646    11.019731      2204118          147  0.007193656   -90.831999    619.44892 
   11900    299.90695     11.05776      2204118          147  0.007193656   -89.580237     620.2285 
   12000    299.87597    11.103138      2204118          147  0.007193656   -88.394259    621.34114 
   12100    300.06594    11.160893      2204118          147  0.007193656   -87.230894    622.95412 
   12200    300.15651    11.215155      2204118          147  0.007193656   -86.090575     624.3088 
   12300    299.99458    11.258777      2204118          147  0.007193656   -84.965747    625.05038 
   12400     299.8533    11.302601      2204118          147  0.007193656   -83.898493    625.78326 
   12500    299.97084    11.359921      2204118          147  0.007193656   -82.862056    627.09787 
   12600    300.14892    11.422619      2204118          147  0.007193656   -81.830068    628.55135 
   12700    300.08692    11.475416      2204118          147  0.007193656   -80.811883    629.42278 
   12800    299.88857    11.520459      2204118          147  0.007193656   -79.856577    629.90865 
   12900    299.88808    11.574715      2204118          147  0.007193656   -78.953796    630.81026 
   13000    300.08647    11.641699      2204118          147  0.007193656   -78.043733    632.18987 
   13100     300.1501    11.702104      2204118          147  0.007193656   -77.172232    633.21197 
   13200    299.97123    11.751439      2204118          147  0.007193656   -76.322447    633.63841 
   13300    299.85223    11.803235      2204118          147  0.007193656   -75.512738    634.16648 
   13400     299.9948    11.871197      2204118          147  0.007193656   -74.677363    635.33928 
   13500    300.15811    11.937942      2204118          147  0.007193656   -73.907753    636.49542 
   13600    300.06575    11.989445      2204118          147  0.007193656   -73.211494    636.97308 
   13700    299.87227    12.039135      2204118          147  0.007193656   -72.492216    637.23443 
   13800    299.90446    12.100587      2204118          147  0.007193656   -71.792704    638.01012 
   13900    300.10752    12.170326      2204118          147  0.007193656   -71.127418    639.15601 
   14000    300.13811    12.232083      2204118          147  0.007193656   -70.486534    639.86929 
   14100    299.94382    12.281189      2204118          147  0.007193656   -69.902556    639.99342 
   14200    299.85338    12.339511      2204118          147  0.007193656   -69.276126    640.40582 
   14300    300.02012    12.408594      2204118          147  0.007193656   -68.701716    641.37487 
   14400    300.16326    12.475791      2204118          147  0.007193656   -68.155273    642.26008 
   14500    300.04086    12.526925      2204118          147  0.007193656     -67.6707    642.45496 
   14600     299.8591    12.576594      2204118          147  0.007193656   -67.170877     642.5246 
   14700     299.9248    12.638823      2204118          147  0.007193656    -66.67274    643.17824 
   14800    300.12646    12.705834      2204118          147  0.007193656   -66.215972    644.11228 
   14900    300.12226    12.763699      2204118          147  0.007193656   -65.754384    644.56394 
   15000    299.91969    12.810627      2204118          147  0.007193656    -65.32412    644.51476 
   15100    299.85955    12.861451      2204118          147  0.007193656   -64.955257    644.74128 
   15200    300.04458    12.924961      2204118          147  0.007193656   -64.582932    645.55152 
   15300    300.16551    12.982234      2204118          147  0.007193656   -64.267166    646.15351 
   15400    300.01697    13.023859      2204118          147  0.007193656   -63.996378    646.07273 
   15500    299.85262     13.06728      2204118          147  0.007193656   -63.694018    645.98613 
   15600    299.95129    13.123856      2204118          147  0.007193656   -63.423495    646.49017 
   15700    300.13758    13.191452      2204118          147  0.007193656   -63.168899    647.18566 
   15800    300.00155    13.289009      2204118          147  0.007193656   -62.686438    647.34618 
   15900    299.40091    13.549333      2204118          147  0.007193656   -60.952122    647.65894 
   16000    300.02713    13.802786      2204118          147  0.007193656   -59.785767     650.3074 
   16100    301.03881      13.9305      2204118          147  0.007193656    -59.79557    652.69201 
   16200    298.84375    14.471045      2204118          147  0.007193656   -55.731721    651.56066 
   16300    298.48633    15.175285      2204118          147  0.007193656   -51.175762    655.27068 
   16400    301.89226    15.607455      2204118          147  0.007193656   -49.990489      664.517 
   16500    302.40533    15.769916      2204118          147  0.007193656   -49.710298     666.0115 
   16600    298.52153    15.859774      2204118          147  0.007193656    -48.39121    658.13855 
   16700    297.21498    16.044495      2204118          147  0.007193656   -47.505891    655.93158 
   16800    299.88452    16.723835      2204118          147  0.007193656   -44.516927    665.23871 
   16900    301.99332    17.672112      2204118          147  0.007193656   -39.451625    675.29505 
   17000    300.23502    18.635186      2204118          147  0.007193656   -32.830718    677.75447 
   17100    301.28845    18.452307      2204118          147  0.007193656   -35.632471    677.44594 
   17200    299.54532    18.426326      2204118          147  0.007193656   -36.355996    672.59684 
   17300    295.69282     19.47025      2204118          147  0.007193656   -28.631742    671.20313 
   17400    299.55493    20.633365      2204118          147  0.007193656   -22.989131    685.98644 
   17500    303.61055    22.031135      2204118          147  0.007193656    -15.27756    703.29671 
   17600    305.47888     21.71821      2204118          147  0.007193656   -18.976205    704.01997 
   17700    298.55503    20.722717      2204118          147  0.007193656   -24.398221    682.21082 
   17800    290.74763    21.105993      2204118          147  0.007193656   -19.358054    668.77273 
   17900     299.2079    21.991124      2204118          147  0.007193656   -16.453202    691.70105 
   18000    309.26281    22.876495      2204118          147  0.007193656   -14.027655    717.92417 
   18100     304.1224    22.802362      2204118          147  0.007193656   -13.226007    706.55969 
   18200    293.54731    22.059852      2204118          147  0.007193656   -15.466654    679.29031 
   18300    293.21258    22.029426      2204118          147  0.007193656   -16.412232     677.5525 
   18400    300.92239     23.74568      2204118          147  0.007193656   -7.3625319     704.8495 
   18500    310.32927    24.313901      2204118          147  0.007193656   -7.3473699    727.12851 
   18600    302.95988    23.675545      2204118          147  0.007193656    -9.807587     707.2267 
   18700    288.27565    23.668747      2204118          147  0.007193656   -4.8763273    677.40387 
   18800    294.87014    23.995304      2204118          147  0.007193656   -5.3037807    692.58402 
   18900    310.61907    24.716576      2204118          147  0.007193656   -6.2540382    728.90773 
   19000    306.28561    25.202209      2204118          147  0.007193656   -1.5829571    723.32255 
   19100    293.73273    24.307179      2204118          147  0.007193656   -3.7895381    691.40627 
   19200    293.59651    23.291082      2204118          147  0.007193656   -11.192601    683.68081 
   19300    301.21031    23.855771      2204118          147  0.007193656   -9.6751807     703.2183 
   19400    307.57689     24.05003      2204118          147  0.007193656   -10.514774    717.44689 
   19500    302.21285    23.139805      2204118          147  0.007193656   -15.197317    700.06894 
   19600     291.8397    22.560793      2204118          147  0.007193656   -15.694254    675.02121 
   19700    294.04991    23.011452      2204118          147  0.007193656   -13.485023    682.46148 
   19800    306.84296     23.85797      2204118          147  0.007193656   -12.678693    713.54594 
   19900    305.37776    25.177927      2204118          147  0.007193656    -3.316592    719.44024 
   20000    294.68927    25.966418      2204118          147  0.007193656    5.6893276    703.14903 
   20100    298.35648    25.425707      2204118          147  0.007193656   0.29083941    706.42997 
   20200    305.20542    24.896017      2204118          147  0.007193656   -6.1871859    716.16175 
   20300    299.43464    25.193744      2204118          147  0.007193656   -2.4477916    706.24309 
   20400    293.81849    25.890739      2204118          147  0.007193656    4.1421597    699.54094 
   20500    300.17585    26.476756      2204118          147  0.007193656    5.6769138    716.12207 
   20600    306.81505    26.918023      2204118          147  0.007193656    6.4700943    732.62865 
   20700     303.7628     26.06525      2204118          147  0.007193656    1.3027426    720.23735 
   20800    293.97731    25.065758      2204118          147  0.007193656   -2.4234359    693.35124 
   20900     292.6159     25.15358      2204118          147  0.007193656  -0.96341832    691.58913 
   21000    306.19865    24.938009      2204118          147  0.007193656    -7.226491     717.4732 
   21100     305.9201    25.466627      2204118          147  0.007193656   -2.9991017    721.04132 
   21200    295.97629    25.276231      2204118          147  0.007193656  -0.65392182    699.85186 
   21300    295.99916    24.395696      2204118          147  0.007193656   -6.7233785    693.83654 
   21400    303.48191    23.625431      2204118          147  0.007193656   -14.623675    703.64613 
   21500    301.46632     23.79926      2204118          147  0.007193656   -12.410162    701.08923 
   21600    295.28126    24.471209      2204118          147  0.007193656   -5.1952837    693.66552 
   21700    299.92836    24.509531      2204118          147  0.007193656   -6.5193793    703.34001 
   21800    306.85576    23.853508      2204118          147  0.007193656   -13.793132    712.46179 
   21900    299.19173    23.677076      2204118          147  0.007193656    -12.46574    695.65022 
   22000    292.09556    23.906501      2204118          147  0.007193656   -8.5747887    682.74624 
   22100    300.20905    24.127476      2204118          147  0.007193656   -10.421136     700.1026 
   22200    305.68368     25.18996      2204118          147  0.007193656   -5.2748677    718.20601 
   22300    301.56264    25.738444      2204118          147  0.007193656  -0.34869099    713.37865 
   22400    297.03967    25.380173      2204118          147  0.007193656   -1.5433016    701.47926 
   22500    299.31696    24.589725      2204118          147  0.007193656   -7.8933722      700.519 
   22600    301.96016    24.110203      2204118          147  0.007193656   -12.090786    702.57739 
   22700    299.73871    24.020256      2204118          147  0.007193656   -11.964815    697.44573 
   22800    296.65952    24.450106      2204118          147  0.007193656   -7.8998723    694.22296 
   22900    300.60853    24.681475      2204118          147  0.007193656   -8.1671516    703.30205 
   23000    301.62195    25.547148      2204118          147  0.007193656   -2.7393512    711.12837 
   23100    300.96366    25.880585      2204118          147  0.007193656  -0.48556801    711.82415 
   23200    299.46581    25.829607      2204118          147  0.007193656  -0.47084615     708.2938 
   23300    298.27114    26.003116      2204118          147  0.007193656    1.4428326    707.37998 
   23400    301.68368    25.790602      2204118          147  0.007193656   -1.1063402     712.9075 
   23500    299.79649    26.261609      2204118          147  0.007193656    3.2366915    712.78399 
   23600    298.70682    26.499979      2204118          147  0.007193656    5.4620811    712.43039 
   23700    303.58708    25.673646      2204118          147  0.007193656   -2.1633098    716.35541 
   23800    298.74216    25.968694      2204118          147  0.007193656    1.9369739    708.98891 
   23900    296.19228    26.242788      2204118          147  0.007193656    4.2591364    705.27611 
   24000    297.01723    28.062411      2204118          147  0.007193656    16.565889    719.53533 
   24100    301.85452    30.684421      2204118          147  0.007193656    33.656319    748.07448 
   24200    308.58634    30.642363      2204118          147  0.007193656    29.861206    760.21198 
   24300    301.98523    30.291008      2204118          147  0.007193656    29.303757    744.03128 
   24400    296.53388    30.253935      2204118          147  0.007193656    31.094091    732.91956 
   24500    296.40281     31.39608      2204118          147  0.007193656    39.169972    740.68523 
   24600    305.67218    31.916406      2204118          147  0.007193656    38.591801    762.04546 
   24700    297.33282    34.821072      2204118          147  0.007193656    63.229902    766.94628 
   24800    306.84928    32.865571      2204118          147  0.007193656    44.398811    770.63839 
   24900    301.95193    31.307934      2204118          147  0.007193656    35.352292    750.00099 
   25000    294.06864    28.991873      2204118          147  0.007193656     21.07492    717.06576 
   25100    288.87941    30.530224      2204118          147  0.007193656    34.610297    718.31944 
   25200    311.55546    30.134688      2204118          147  0.007193656    22.876194    760.25417 
   25300    304.94666    33.129587      2204118          147  0.007193656    47.201855    768.93838 
   25400    296.36828    33.595741      2204118          147  0.007193656    53.283282    754.71681 
   25500     297.5958    32.659237      2204118          147  0.007193656    44.662992    749.00178 
   25600    294.82775     34.51732      2204118          147  0.007193656    58.439239     756.2267 
   25700    299.70808    37.349632      2204118          147  0.007193656    77.483026    786.82107 
   25800    317.75366    35.432954      2204118          147  0.007193656    56.449906    808.49757 
   25900     296.2534    35.646171      2204118          147  0.007193656    66.429527    767.59116 
   26000    290.84248    32.805244      2204118          147  0.007193656    47.201849    735.55713 
   26100    294.51159    32.551144      2204118          147  0.007193656    43.972434    741.01162 
   26200    301.86947    34.738406      2204118          147  0.007193656    57.367206    771.82076 
   26300    309.34405    35.854016      2204118          147  0.007193656    62.865108    795.00922 
   26400    302.11478    35.328658      2204118          147  0.007193656    60.619457     775.6536 
   26500    291.47222    35.201654      2204118          147  0.007193656    62.664491     752.5102 
   26600    295.63759    36.466877      2204118          147  0.007193656    70.346471    770.05064 
   26700    309.42091    36.953974      2204118          147  0.007193656    68.576879     800.9029 
   26800    307.93141    36.088848      2204118          147  0.007193656    62.532289      791.333 
   26900    294.76006    34.479393      2204118          147  0.007193656    55.616274    753.24353 
   27000    291.46942    33.559234      2204118          147  0.007193656    50.216917    740.05602 
   27100    293.23594     36.26556      2204118          147  0.007193656    69.319811    763.33984 
   27200    309.09183    38.693695      2204118          147  0.007193656    81.542952    813.09012 
   27300    319.25438    36.877386      2204118          147  0.007193656    64.705474    820.30499 
   27400    292.31363    34.743939      2204118          147  0.007193656    58.557221    750.39437 
   27500    278.07077    33.933972      2204118          147  0.007193656    57.488642    715.61631 
   27600    295.57145    36.328414      2204118          147  0.007193656    69.103184    768.65082 
   27700    331.31754     36.37878      2204118          147  0.007193656    56.489778    840.63993 
   27800    303.75788    37.487179      2204118          147  0.007193656    74.956757    793.87972 
   27900    282.89958     34.25961      2204118          147  0.007193656     58.39522    727.95152 
   28000     286.4271    33.840568      2204118          147  0.007193656    54.352129    732.25723 
   28100    308.39139    35.464832      2204118          147  0.007193656    58.202326    788.09171 
   28200    321.70192    34.245477      2204118          147  0.007193656    43.071331    804.46358 
   28300    288.41749    34.654823      2204118          147  0.007193656    56.349078    738.96497 
   28400    270.46412    37.804295      2204118          147  0.007193656    84.444251    724.56878 
   28500    313.53642    38.915746      2204118          147  0.007193656     76.58903    818.65548 
   28600    333.15573    39.557063      2204118          147  0.007193656    74.781652    863.28236 
   28700    297.36932    36.524113      2204118          147  0.007193656    65.255623    769.05838 
   28800    264.61355    35.900667      2204118          147  0.007193656    73.213646    699.49125 
   28900    295.89142     35.22041      2204118          147  0.007193656    58.096114    758.40102 
   29000    332.36399    36.682197      2204118          147  0.007193656    57.877102    844.50395 
   29100      313.379    34.860593      2204118          147  0.007193656    52.133423    793.82731 
   29200    271.20944    33.452358      2204118          147  0.007193656    57.205968    699.09448 
   29300    277.87727    33.898472      2204118          147  0.007193656    58.496157    716.16585 
   29400    326.13937    34.707759      2204118          147  0.007193656    47.014264    818.90892 
   29500    320.46908    37.311536      2204118          147  0.007193656    68.377314    826.85172 
   29600    287.52018    34.694142      2204118          147  0.007193656    60.244226    740.73641 
   29700    277.61065    33.084978      2204118          147  0.007193656    52.809566    709.84824 
   29800     307.6734    32.063062      2204118          147  0.007193656    35.065743    763.25582 
   29900    313.14811    34.642205      2204118          147  0.007193656    52.606719    793.75413 
   30000     298.7396    35.097005      2204118          147  0.007193656    61.803255    768.84913 
   30100    297.23725    31.539796      2204118          147  0.007193656    37.125467    740.61564 
   30200    297.46589    29.208414      2204118          147  0.007193656    20.917444    724.94875 
   30300    293.41664     30.35006      2204118          147  0.007193656     31.06495    725.51265 
   30400    303.91694    30.798919      2204118          147  0.007193656    29.669084    748.96851 
   30500    302.79451     32.79779      2204118          147  0.007193656    44.048981    760.69189 
   30600    297.73659     34.46814      2204118          147  0.007193656    58.136235    762.80824 
   30700     307.2019    32.510335      2204118          147  0.007193656    40.668237    767.74239 
   30800    306.29963    29.069697      2204118          147  0.007193656    15.764757    740.70344 
   30900    281.90993    29.905827      2204118          147  0.007193656    30.987149    698.20118 
   31000    292.41142    30.228249      2204118          147  0.007193656    29.356214     721.4248 
   31100     317.2993    30.922732      2204118          147  0.007193656    25.408682    776.38097 
   31200     306.6487    32.289291      2204118          147  0.007193656    39.344584    765.10944 
   31300    288.58109    31.657459      2204118          147  0.007193656    41.071348    724.07445 
   31400    290.76384    31.402928      2204118          147  0.007193656    38.817866    726.98702 
   31500    312.34236    30.636998      2204118          147  0.007193656    25.957695    765.19808 
   31600    310.83208    29.888569      2204118          147  0.007193656    21.582722    757.24864 
   31700    285.67026    30.170749      2204118          147  0.007193656    32.913396    709.02724 
   31800    287.87267    30.491341      2204118          147  0.007193656    34.786737    716.11317 
   31900    313.58944    30.669045      2204118          147  0.007193656    27.016138    769.20808 
   32000    312.21026    31.143179      2204118          147  0.007193656    31.092653    770.02039 
   32100    291.55529    30.358236      2204118          147  0.007193656    32.928118    722.97045 
   32200     290.5137    28.588981      2204118          147  0.007193656    20.755334    708.33246 
   32300    300.41118     29.16514      2204118          147  0.007193656    22.005236    733.00735 
   32400    306.34298    30.996912      2204118          147  0.007193656    34.234173    759.27546 
   32500    309.14209    29.405336      2204118          147  0.007193656    22.007386    753.67349 
   32600    293.30848    28.455591      2204118          147  0.007193656    21.534179     715.7259 
   32700    291.17225    27.499548      2204118          147  0.007193656    15.705733     704.8415 
   32800    301.73767    28.046574      2204118          147  0.007193656    16.036343    730.17796 
   32900     307.5741    29.225412      2204118          147  0.007193656    22.023506    749.97856 
   33000    298.11078    30.688916      2204118          147  0.007193656    35.775041    741.33265 
   33100    297.89747     30.13627      2204118          147  0.007193656    31.783705    736.83647 
   33200    303.34262    28.898259      2204118          147  0.007193656    21.287953    739.22809 
   33300    300.83274    28.279691      2204118          147  0.007193656    18.315099    730.31496 
   33400    295.77959    28.090263      2204118          147  0.007193656    18.837324    718.87757 
   33500    295.43878    28.917672      2204118          147  0.007193656    24.725774    723.95941 
   33600    303.58018    30.067819      2204118          147  0.007193656    30.374743    748.87714 
   33700    313.46552     28.37145      2204118          147  0.007193656    14.489326    756.38797 
   33800    296.06174    27.114851      2204118          147  0.007193656     11.80527    712.51331 
   33900    284.86269    26.549143      2204118          147  0.007193656    11.302573     685.5051 
   34000    294.47067    28.720439      2204118          147  0.007193656    23.560719    720.50306 
   34100    317.63999    29.947648      2204118          147  0.007193656    23.948398    775.72703 
   34200    311.24265    29.563265      2204118          147  0.007193656    24.002652     760.6403 
   34300     289.3645     27.11875      2204118          147  0.007193656    14.697942    699.55519 
   34400    284.87051    25.942132      2204118          147  0.007193656    8.2320346    682.45308 
   34500    301.50206    27.324378      2204118          147  0.007193656    12.589431    726.17341 
   34600    317.13106    28.386708      2204118          147  0.007193656    15.010217    765.58434 
   34700    305.87515     27.15282      2204118          147  0.007193656    10.259548     734.1936 
   34800    284.77033    25.658561      2204118          147  0.007193656    7.5255209    681.50945 
   34900    288.75885    25.477317      2204118          147  0.007193656    5.5015569    688.92536 
   35000    311.48567    26.346291      2204118          147  0.007193656    4.4831898      741.696 
   35100    312.62536    27.050363      2204118          147  0.007193656    9.8850737    749.79526 
   35200    293.45642    26.234859      2204118          147  0.007193656     11.13435     705.6762 
   35300    285.25605    26.210625      2204118          147  0.007193656    14.545059    689.67857 
   35400    304.71164    26.219209      2204118          147  0.007193656    8.5911482    729.77144 
   35500     317.2778    25.586305      2204118          147  0.007193656   0.37920092    751.30061 
   35600    297.40991    24.578014      2204118          147  0.007193656   0.88929768    704.78813 
   35700    284.50535    23.156941      2204118          147  0.007193656   -4.9355265    668.42127 
   35800    291.42272    24.924876      2204118          147  0.007193656    5.5056876    695.23424 
   35900    315.76879    26.513792      2204118          147  0.007193656    7.9693321    755.31928 
   36000    313.79357    26.829736      2204118          147  0.007193656    10.632524     753.3076 
   36100    287.92341    26.222276      2204118          147  0.007193656    15.316709    696.76324 
   36200    286.88274    24.981844      2204118          147  0.007193656    6.7781161    685.76162 
   36300    308.39634    24.619749      2204118          147  0.007193656   -3.1181491    726.78295 
   36400     314.1516    24.259137      2204118          147  0.007193656   -7.8455885    735.67686 
   36500     291.5308    24.238863      2204118          147  0.007193656  -0.35479956    689.62956 
   36600    283.43428    24.923292      2204118          147  0.007193656    6.8729667    677.69478 
   36700    305.03267    26.283063      2204118          147  0.007193656    8.6518027    730.59189 
   36800    317.45005    27.712868      2204118          147  0.007193656    14.377076    765.70616 
   36900    300.89017    27.199795      2204118          147  0.007193656    16.285178    728.42095 
   37000    287.07106    25.513784      2204118          147  0.007193656    8.9635124    688.39274 
   37100    293.08459    25.378449      2204118          147  0.007193656    6.2456268    699.90743 
   37200    309.41155    26.325666      2204118          147  0.007193656    8.1129095    740.41677 
   37300    311.48976    25.858159      2204118          147  0.007193656    4.3975519    741.62006 
   37400    292.11428    25.127103      2204118          147  0.007193656    6.3213733     697.6867 
   37500    285.38427    25.436726      2204118          147  0.007193656    11.535915    686.97289 
   37600    308.03656    25.156781      2204118          147  0.007193656    1.8569393    730.90652 
   37700    314.42956    25.244443      2204118          147  0.007193656   0.77158005    744.95188 
   37800    294.19939    24.816149      2204118          147  0.007193656    5.3509572    701.65124 
   37900    286.75841    23.994486      2204118          147  0.007193656    2.2649579    680.95421 
   38000    301.74928    24.130517      2204118          147  0.007193656   -2.2913104    711.87778 
   38100    308.82912    26.108604      2204118          147  0.007193656    9.1916235      740.117 
   38200    301.50619    27.073615      2204118          147  0.007193656    18.284919    731.87866 
   38300    294.13914     26.93853      2204118          147  0.007193656    19.804326      715.962 
   38400    299.28462    26.125315      2204118          147  0.007193656    12.254924    720.59074 
   38500     305.5973    25.394512      2204118          147  0.007193656    5.2466539     728.5231 
   38600    299.92031    25.065354      2204118          147  0.007193656     5.458615    715.29896 
   38700    294.42754    24.744916      2204118          147  0.007193656    5.5418331    702.38209 
   38800    299.37444    24.489913      2204118          147  0.007193656    2.0078248    710.55622 
   38900    300.04559     26.21596      2204118          147  0.007193656    14.501722    724.63858 
   39000    304.13888    26.714608      2204118          147  0.007193656    16.463688    736.28839 
   39100    304.16684    25.890974      2204118          147  0.007193656    10.156694    730.04757 
   39200    295.65943    25.345173      2204118          147  0.007193656    9.2115261    708.96737 
   39300    294.60187    25.107893      2204118          147  0.007193656    7.7113652    704.96422 
   39400    299.53281    26.485531      2204118          147  0.007193656     16.27983    725.20306 
   39500    310.62586    25.936737      2204118          147  0.007193656    8.2648183    743.44266 
   39600    300.69234    25.553041      2204118          147  0.007193656    9.2664473    720.93402 
   39700    291.27788    24.534586      2204118          147  0.007193656    5.0674628    694.45323 
   39800    292.37192     25.61962      2204118          147  0.007193656    12.485992    704.46108 
   39900    308.32735    27.090164      2204118          147  0.007193656    17.522521    747.26034 
   40000    313.26093    26.947036      2204118          147  0.007193656    14.861519    756.27596 
   40100    293.64924     26.16549      2204118          147  0.007193656    16.532055    711.53026 
   40200    289.03578     24.68305      2204118          147  0.007193656    7.9337863    692.01302 
   40300    300.87726    24.653369      2204118          147  0.007193656    4.2936762    716.39891 
   40400    311.24033     24.70233      2204118          147  0.007193656    1.6664922    738.29864 
   40500    302.75101    23.856381      2204118          147  0.007193656   -1.0390113    715.50094 
   40600    287.33123    23.701943      2204118          147  0.007193656    3.2097963    683.25477 
   40700    290.25691     25.45326      2204118          147  0.007193656    14.905295    701.87465 
   40800     316.4716    25.717726      2204118          147  0.007193656    7.3143644     756.3277 
   40900    313.43769    25.177913      2204118          147  0.007193656    4.8196894    746.65247 
   41000    287.49857    23.692031      2204118          147  0.007193656    3.5314596    683.97249 
   41100     280.4723    24.107893      2204118          147  0.007193656       9.6116    673.42312 
   41200    307.15663    25.636459      2204118          147  0.007193656    12.030186    738.99719 
   41300    327.45975     24.92223      2204118          147  0.007193656  -0.13795285    774.88172 
   41400    293.72349    24.164277      2204118          147  0.007193656    6.5470276    701.72098 
   41500    274.64202    23.297023      2204118          147  0.007193656    6.5238967    656.53651 
   41600    296.61937      24.5388      2204118          147  0.007193656    7.1744967    709.20229 
   41700    321.97714    27.384945      2204118          147  0.007193656    18.487493    780.53113 
   41800    312.75067    27.157663      2204118          147  0.007193656    20.026177    760.23294 
   41900    288.44587    23.583688      2204118          147  0.007193656    2.5203087    685.20338 
   42000    278.38051    23.129818      2204118          147  0.007193656    2.8455693    661.70631 
   42100    302.72631    24.767427      2204118          147  0.007193656    5.3049466    721.78643 
   42200    318.58465    27.966412      2204118          147  0.007193656    22.121559    776.13598 
   42300    306.94569    27.819931      2204118          147  0.007193656    24.370166    750.83793 
   42400    287.28589    26.017487      2204118          147  0.007193656    18.012287    697.94996 
   42500    287.66905    25.624696      2204118          147  0.007193656    15.380693    696.22521 
   42600    310.79411    25.499704      2204118          147  0.007193656    6.4607356    742.03679 
   42700    309.54749    26.708998      2204118          147  0.007193656    16.041184     748.6668 
   42800    295.31893    25.872462      2204118          147  0.007193656    14.989008    713.93897 
   42900    292.47788    24.509619      2204118          147  0.007193656    6.1618551    698.38774 
   43000    295.43116    26.145784      2204118          147  0.007193656    17.656611     716.8722 
   43100    312.68647    25.483626      2204118          147  0.007193656    6.3743172    746.42915 
   43200    303.60443    25.442901      2204118          147  0.007193656    9.1710995     727.7309 
   43300    286.28396    26.037862      2204118          147  0.007193656    19.509061    697.07539 
   43400    296.31794    26.188512      2204118          147  0.007193656    17.015881    718.33027 
   43500    314.16212    26.204029      2204118          147  0.007193656    10.843262     754.3906 
   43600    304.35811     26.23525      2204118          147  0.007193656    14.696407    735.03998 
   43700    288.79193    25.203812      2204118          147  0.007193656    12.286482    695.78859 
   43800    289.86268    25.785778      2204118          147  0.007193656    15.697971     701.7343 
   43900    308.86825    27.073434      2204118          147  0.007193656    17.984795    749.00279 
   44000    315.76468    26.527467      2204118          147  0.007193656    11.264853    758.60508 
   44100    291.64791    26.244452      2204118          147  0.007193656    18.412959    708.67448 
   44200    284.94474    25.367958      2204118          147  0.007193656    15.353597    689.75032 
   44300    306.67924    24.107479      2204118          147  0.007193656  -0.87255396    724.96459 
   44400    313.98145    23.426157      2204118          147  0.007193656   -8.3674007    734.75233 
   44500    288.78118    24.592543      2204118          147  0.007193656    8.3404715    691.81713 
   44600    280.20396    27.448513      2204118          147  0.007193656     31.99214    695.16856 
   44700    318.97058    26.814227      2204118          147  0.007193656    13.110276     768.0381 
   44800    321.51587    26.141767      2204118          147  0.007193656    7.5526969    768.50463 
   44900    284.31274    24.888391      2204118          147  0.007193656    11.377121    684.27805 
   45000    272.56726    25.965617      2204118          147  0.007193656    23.343385    668.44555 
   45100    312.30331    27.114023      2204118          147  0.007193656    17.129035      756.277 
   45200    329.81408    28.130962      2204118          147  0.007193656    18.226928    798.81875 
   45300    294.13341    26.897207      2204118          147  0.007193656    21.977903    718.12203 
   45400    271.99644    25.871375      2204118          147  0.007193656    22.651749    666.40291 
   45500    296.27309    26.695119      2204118          147  0.007193656    20.695099    721.90335 
   45600    329.62891    27.158289      2204118          147  0.007193656    12.309289    792.46286 
   45700    304.93681    27.330015      2204118          147  0.007193656    22.530963    744.24417 
   45800    280.28242     25.41699      2204118          147  0.007193656    17.604807    680.96692 
   45900    292.89096    23.812552      2204118          147  0.007193656    1.8422225    695.04577 
   46000    312.43788    24.585318      2204118          147  0.007193656   0.69037697    740.15684 
   46100    304.67122    26.568297      2204118          147  0.007193656    18.056184    739.14081 
   46200    293.49945    26.130412      2204118          147  0.007193656    18.237393    712.88108 
   46300    292.91828    26.406694      2204118          147  0.007193656    20.528302    713.79651 
   46400    307.43967    26.042188      2204118          147  0.007193656    12.369712    740.00659 
   46500    302.97312    27.686563      2204118          147  0.007193656    26.345492    743.41113 
   46600    300.86638    26.614974      2204118          147  0.007193656    19.161136     731.2406 
   46700    293.50021     26.88616      2204118          147  0.007193656    24.211284    718.85678 
   46800    300.91542    26.468194      2204118          147  0.007193656    18.576576    730.77211 
   46900    307.90814    25.786702      2204118          147  0.007193656    11.087712    739.83337 
   47000    298.25137    25.657119      2204118          147  0.007193656    13.454401    719.34476 
   47100    288.84854    26.693077      2204118          147  0.007193656    24.039083    707.67518 
   47200    300.46155    27.562872      2204118          147  0.007193656    26.067837    737.18917 
   47300    309.96568    28.565048      2204118          147  0.007193656    30.637392    764.25275 
   47400    305.15072    26.804075      2204118          147  0.007193656    19.661603    741.88108 
   47500    292.74083    24.304045      2204118          147  0.007193656    5.6167726      698.465 
   47600    286.15382    24.994547      2204118          147  0.007193656    12.872031    690.13036 
   47700    303.07052    26.635466      2204118          147  0.007193656     18.29291    735.58906 
   47800    317.98809    27.144008      2204118          147  0.007193656    15.614019    768.21653 
   47900    294.36995    28.978243      2204118          147  0.007193656    36.940419    733.64438 
   48000    288.93684    28.331029      2204118          147  0.007193656    33.624366    717.46945 
   48100     303.2518    28.390247      2204118          147  0.007193656    29.526948    747.25215 
   48200    313.61875    27.635362      2204118          147  0.007193656    20.539794     762.8011 
   48300     292.7329    28.500064      2204118          147  0.007193656     34.73661    727.56607 
   48400    289.39329     27.86236      2204118          147  0.007193656    30.629676    715.55505 
   48500    298.71531    29.546574      2204118          147  0.007193656    39.553634    746.54202 
   48600    316.77823    29.138805      2204118          147  0.007193656     30.22414     779.9632 
   48700    303.24183    28.655559      2204118          147  0.007193656    32.479923    750.18152 
   48800    287.85988    26.893776      2204118          147  0.007193656    26.118065    707.41424 
   48900    292.67355    26.296781      2204118          147  0.007193656    21.505321    714.19429 
   49000    313.18214    24.999053      2204118          147  0.007193656    5.6688437    746.89681 
   49100    305.63448    24.421547      2204118          147  0.007193656    4.9624892    728.32693 
   49200    287.67287    23.678836      2204118          147  0.007193656    6.0131988    686.86675 
   49300    288.12942    24.769332      2204118          147  0.007193656    13.764981     695.6991 
   49400    311.10618    25.994398      2204118          147  0.007193656    13.951178    750.26583 
   49500    311.57581    27.643944      2204118          147  0.007193656    25.054888    762.48104 
   49600    296.96452    26.819043      2204118          147  0.007193656    23.238632    726.08332 
   49700    289.05426     25.89857      2204118          147  0.007193656    18.688263    702.81124 
   49800    295.62746    26.833548      2204118          147  0.007193656    22.675673    722.35586 
   49900    308.03682    28.897236      2204118          147  0.007193656    33.453327    762.50354 
   50000     313.3174    27.776813      2204118          147  0.007193656     23.12394    764.67202 
   50100    288.39053    28.141245      2204118          147  0.007193656    34.520101     717.0722 
   50200    286.18076    28.508139      2204118          147  0.007193656    37.545452    714.86754 
   50300    308.30468    29.635723      2204118          147  0.007193656    37.802578    767.48674 
   50400    318.12154    29.550279      2204118          147  0.007193656    33.614478    786.53283 
   50500    289.20691    30.521579      2204118          147  0.007193656    51.961591    736.44586 
   50600    288.61883    28.491486      2204118          147  0.007193656    37.660422    720.75284 
   50700     306.4427    27.855687      2204118          147  0.007193656    27.404283    752.68158 
   50800    309.92489     27.86191      2204118          147  0.007193656      26.9964    760.51521 
   50900    297.35814    26.071087      2204118          147  0.007193656    18.421914    722.19821 
   51000    286.69227    25.775733      2204118          147  0.007193656    20.097792     698.6305 
   51100    299.22186    26.379523      2204118          147  0.007193656    19.696343    727.88362 
   51200    310.82578    28.226785      2204118          147  0.007193656    28.953585     764.6046 
   51300    309.34468    27.263299      2204118          147  0.007193656    21.894404    754.04001 
   51400     290.4822    26.244348      2204118          147  0.007193656    20.685683    708.18826 
   51500    286.87322    26.696081      2204118          147  0.007193656    25.004547    703.96553 
   51600    307.10248    27.786073      2204118          147  0.007193656    25.694933    752.53378 
   51700    319.35352    26.917032      2204118          147  0.007193656    14.750827    770.58498 
   51800     295.3072    25.178455      2204118          147  0.007193656     9.870455    708.79265 
   51900    272.70978    26.581359      2204118          147  0.007193656    27.713697    673.15317 
   52000    301.73162    27.697075      2204118          147  0.007193656    25.137248    739.26453 
   52100     328.1452    29.125047      2204118          147  0.007193656     26.41008    803.05206 
   52200     302.5234    29.177723      2204118          147  0.007193656    36.610015    752.61125 
   52300    282.39334    26.227316      2204118          147  0.007193656    22.304251     690.6624 
   52400    284.69264    27.001657      2204118          147  0.007193656    27.875169    701.67522 
   52500    318.18191    26.985402      2204118          147  0.007193656    15.992082    769.05331 
   52600    314.37423    27.696072      2204118          147  0.007193656    23.297174    767.34653 
   52700    289.12973    25.949388      2204118          147  0.007193656    19.786194    704.08781 
   52800    285.85662    24.092103      2204118          147  0.007193656    7.4671505    684.02206 
   52900    300.25977    25.431042      2204118          147  0.007193656    12.030167    722.67394 
   53000    310.58586     28.36372      2204118          147  0.007193656    29.625744    764.70893 
   53100    310.55149    27.343725      2204118          147  0.007193656     21.21415    756.21599 
   53200    287.24051    27.431299      2204118          147  0.007193656    30.053218    709.88348 
   53300    290.44369    26.740235      2204118          147  0.007193656    23.869207    711.28063 
   53400    310.81529    26.380259      2204118          147  0.007193656    14.082213    749.70839 
   53500    305.84984     27.50836      2204118          147  0.007193656    24.386583    748.26071 
   53600    293.78612     27.23914      2204118          147  0.007193656    26.993675    722.31584 
   53700    297.34126    25.799669      2204118          147  0.007193656     15.71134    719.44768 
   53800    304.94351    24.828859      2204118          147  0.007193656    6.2896766    728.01875 
   53900    298.17777    25.497003      2204118          147  0.007193656    13.239152    718.95532 
   54000    291.33978    27.741599      2204118          147  0.007193656    31.849907    721.38218 
   54100    306.99181    28.079382      2204118          147  0.007193656    28.494901    755.07182 
   54200    312.33528    26.502681      2204118          147  0.007193656    14.453828    753.67748 
   54300    290.33062    26.080188      2204118          147  0.007193656    19.327364    706.47119 
   54400    290.01757    24.762888      2204118          147  0.007193656    9.6659464    696.06884 
   54500    303.71836    25.155378      2204118          147  0.007193656    7.3585083    726.18795 
   54600    305.73923    27.237079      2204118          147  0.007193656    21.595679    745.20803 
   54700    300.69832    27.900667      2204118          147  0.007193656    28.091057    739.77278 
   54800    296.43976    27.645678      2204118          147  0.007193656    28.046699     729.6494 
   54900    299.93276    26.838664      2204118          147  0.007193656    21.250278    731.12008 
   55000     302.1616    26.556081      2204118          147  0.007193656     18.55722    733.70217 
   55100    297.68081    27.195843      2204118          147  0.007193656    24.766826    729.30681 
   55200    295.89571     28.50004      2204118          147  0.007193656    35.046867    735.36195 
   55300    307.77711    27.728075      2204118          147  0.007193656    25.416782    753.85231 
   55400    305.19062    26.963308      2204118          147  0.007193656    21.554143    743.86805 
   55500    294.10597    25.654818      2204118          147  0.007193656    16.399057    712.47825 
   55600     290.3951    25.755086      2204118          147  0.007193656    18.716489    706.01293 
   55700    306.15046    25.585331      2204118          147  0.007193656    11.757368    736.34301 
   55800    309.61765    25.781194      2204118          147  0.007193656    11.827311    744.61897 
   55900    293.93242    26.108073      2204118          147  0.007193656    19.158074     714.8265 
   56000    289.66449    26.519831      2204118          147  0.007193656    22.982712    708.54996 
   56100    305.12562    26.914925      2204118          147  0.007193656    19.756833     741.9169 
   56200    309.02886    27.859843      2204118          147  0.007193656    24.617374     756.0155 
   56300    296.46829    28.216696      2204118          147  0.007193656    30.587674     732.2579 
   56400    291.31721    28.341435      2204118          147  0.007193656    32.702825    722.18167 
   56500    302.11107    28.706932      2204118          147  0.007193656    31.683777    746.70915 
   56600    310.50009    28.432453      2204118          147  0.007193656    26.873021     761.7532 
   56700    296.90233    28.830298      2204118          147  0.007193656    35.172931    737.87042 
   56800    296.71333    26.642047      2204118          147  0.007193656    19.060783    721.31098 
   56900    297.34343    26.463347      2204118          147  0.007193656    17.658981    721.40047 
   57000    300.76932    27.038304      2204118          147  0.007193656    20.495717    732.34547 
   57100    301.76415    28.013118      2204118          147  0.007193656    27.382889    741.58716 
   57200    304.04966    27.172793      2204118          147  0.007193656    20.110154    739.72369 
   57300    292.82177    28.411258      2204118          147  0.007193656    33.672877    726.71266 
   57400    301.06113    27.437572      2204118          147  0.007193656    23.799683    736.34008 
   57500     305.8365    26.743671      2204118          147  0.007193656    16.991134    740.83369 
   57600    294.56748    27.588411      2204118          147  0.007193656    26.677827    723.84929 
   57700    292.93972    28.758286      2204118          147  0.007193656    35.396912    728.71586 
   57800    309.18699    28.372409      2204118          147  0.007193656    26.652236    758.42462 
   57900    307.76948    27.956461      2204118          147  0.007193656    24.503019     752.9205 
   58000    293.72846    26.757389      2204118          147  0.007193656    21.091023    716.27672 
   58100    289.81726    26.358001      2204118          147  0.007193656    20.136912    706.06574 
   58200    302.87039    26.723722      2204118          147  0.007193656    18.378926    735.20142 
   58300     306.3256    28.661244      2204118          147  0.007193656    31.494543    756.49469 
   58400    304.15064    28.141386      2204118          147  0.007193656    28.566452    748.41899 
   58500    297.57703    26.367747      2204118          147  0.007193656    17.996634    722.29098 
   58600    290.38124    26.527989      2204118          147  0.007193656    22.090852    709.35448 
   58700    301.20845    26.783063      2204118          147  0.007193656    20.424742     733.3138 
   58800    312.37272    26.334672      2204118          147  0.007193656    13.877912    753.19018 
   58900    301.98628    24.889551      2204118          147  0.007193656     7.571503    722.30151 
   59000    285.33076    24.568618      2204118          147  0.007193656    11.706052     687.0164 
   59100    294.08554    25.048925      2204118          147  0.007193656    12.148268    708.17909 
   59200    313.92817    25.825669      2204118          147  0.007193656    10.450846    753.44448 
   59300    306.79129    26.645486      2204118          147  0.007193656    18.750923    744.85325 
   59400    291.23742     25.71236      2204118          147  0.007193656     17.07188    706.36188 
   59500    289.77421    25.811675      2204118          147  0.007193656    18.439911    704.26684 
   59600    307.64203    26.012686      2204118          147  0.007193656    13.539023    741.65485 
   59700    311.49503    26.116883      2204118          147  0.007193656    12.977104    750.21208 
   59800    296.61853     24.81874      2204118          147  0.007193656     8.351193    710.37702 
   59900    283.53698    25.321544      2204118          147  0.007193656    16.442333    687.50722 
   60000    301.45703    25.817046      2204118          147  0.007193656     13.32758    726.80498 
   60100    315.65438    26.972146      2204118          147  0.007193656    16.374692    763.45385 
   60200    299.64338    27.978748      2204118          147  0.007193656    29.139394    738.32432 
   60300    289.15403     27.35761      2204118          147  0.007193656    28.044921    712.40403 
   60400    297.02769     27.45748      2204118          147  0.007193656    26.220551    729.21476 
   60500    310.54698    27.543977      2204118          147  0.007193656    22.146799    757.13796 
   60600    303.97439    27.503705      2204118          147  0.007193656    24.782165    744.21755 
   60700    293.39003    26.260888      2204118          147  0.007193656    20.367818    714.75254 
   60800    297.18274    24.351182      2204118          147  0.007193656    5.7707451    709.13191 
   60900    300.05531    24.756255      2204118          147  0.007193656    8.3491539    718.50901 
   61000    303.42051    24.886289      2204118          147  0.007193656    7.6719104     725.7964 
   61100    294.85996    26.916745      2204118          147  0.007193656    25.554537    723.41824 
   61200    301.15553     27.05561      2204118          147  0.007193656    24.331438    737.09526 
   61300    308.04784    26.337259      2204118          147  0.007193656    17.261395    746.33769 
   61400    300.36956    25.239633      2204118          147  0.007193656    12.676505    723.58013 
   61500    292.97533    23.865399      2204118          147  0.007193656    5.9064264    699.30965 
   61600    296.48271    23.416624      2204118          147  0.007193656    1.8054387     703.5098 
   61700    304.02416    23.916445      2204118          147  0.007193656    2.7147912    722.26797 
   61800    304.51133    24.178882      2204118          147  0.007193656    3.6686596    724.37485 
   61900    294.92398    24.982916      2204118          147  0.007193656      11.8388    709.85401 
   62000    294.24656    26.123028      2204118          147  0.007193656    19.229904    715.64184 
   62100    305.33071    26.914926      2204118          147  0.007193656    20.045315     742.6908 
   62200    307.31198    27.328489      2204118          147  0.007193656    21.978427    749.31311 
   62300    298.94524    26.490073      2204118          147  0.007193656    18.548034    726.08061 
   62400    290.77687    26.279853      2204118          147  0.007193656     19.78398    707.98398 
   62500    298.80977     26.56574      2204118          147  0.007193656    18.969866    726.18182 
   62600    310.56296    26.577805      2204118          147  0.007193656    14.923248    749.95224 
   62700    302.40434    26.206167      2204118          147  0.007193656    15.002351    730.72182 
   62800    288.36786    26.389987      2204118          147  0.007193656    21.549714    704.04814 
   62900     297.0863     26.36578      2204118          147  0.007193656     18.43487    721.56779 
   63000    307.79341    27.689278      2204118          147  0.007193656    25.051761    753.52587 
   63100    310.04495    26.663777      2204118          147  0.007193656    17.670676    751.47364 
   63200    298.93415    23.478689      2204118          147  0.007193656  -0.91377224    706.59256 
   63300     283.7261     22.75206      2204118          147  0.007193656  -0.41060823    671.10189 
   63400    291.68407     24.55561      2204118          147  0.007193656    9.5978838    699.94499 
   63500    313.04335    27.496691      2204118          147  0.007193656    23.029506    763.92898 
   63600    318.08201    27.443945      2204118          147  0.007193656    20.167712    772.99251 
   63700    290.71888     26.35521      2204118          147  0.007193656    21.482115    709.54485 
   63800    280.29104    25.807658      2204118          147  0.007193656    20.714372    684.09688 
   63900     304.3591    26.206217      2204118          147  0.007193656    14.639619    734.98552 
   64000    316.80259    28.109183      2204118          147  0.007193656    23.731673    773.52837 
   64100    299.80584    28.670553      2204118          147  0.007193656    33.172258    742.74167 
   64200     287.3538    28.118776      2204118          147  0.007193656    33.288051    713.38645 
   64300     301.4313    26.647995      2204118          147  0.007193656    17.298352    730.71485 
   64400    308.43392    26.672937      2204118          147  0.007193656    14.860799    744.85083 
   64500    296.27648    27.701349      2204118          147  0.007193656     26.53478    727.75106 
   64600    294.89022    27.459118      2204118          147  0.007193656    25.296867    723.23218 
   64700    305.57779     26.43811      2204118          147  0.007193656    14.681087    737.91136 
   64800    303.07966    26.236731      2204118          147  0.007193656    15.038085    732.35586 
   64900    297.41308    25.044704      2204118          147  0.007193656    8.8489599    712.75528 
   65000    294.23815    24.828916      2204118          147  0.007193656    8.5514913    704.94352 
   65100    296.90997     26.34696      2204118          147  0.007193656    18.573125    721.28871 
   65200    306.74784    27.712005      2204118          147  0.007193656     25.04436    751.04384 
   65300    310.13451    26.858092      2204118          147  0.007193656    17.456814    751.47175 
   65400    293.02471    26.257614      2204118          147  0.007193656    19.471249    712.99135 
   65500    290.76745    25.182984      2204118          147  0.007193656    12.643379    700.82108 
   65600    303.94192    24.917733      2204118          147  0.007193656    6.0381243    725.39667 
   65700    307.09236    25.717413      2204118          147  0.007193656    10.326112    737.14101 
   65800    297.43225    26.167996      2204118          147  0.007193656    16.114113     720.0658 
   65900      291.062    27.201424      2204118          147  0.007193656    25.044289    713.91911 
   66000    300.97118    28.471043      2204118          147  0.007193656    29.934959    742.26246 
   66100    309.54857    29.498934      2204118          147  0.007193656    33.702759    766.33091 
   66200    299.04547    30.781854      2204118          147  0.007193656    46.899355    754.66916 
   66300    299.89665    28.432107      2204118          147  0.007193656    29.244675    739.02903 
   66400    296.99155    27.439854      2204118          147  0.007193656    23.837775    726.74644 
   66500    300.37705    26.149752      2204118          147  0.007193656     13.80615    724.72749 
   66600      298.711    26.405514      2204118          147  0.007193656    16.963428    723.94161 
   66700    298.41455    27.057051      2204118          147  0.007193656    22.186097    728.46266 
   66800    302.93488    27.088413      2204118          147  0.007193656    21.112411    738.08752 
   66900    303.05595    26.698883      2204118          147  0.007193656    18.897771    736.15944 
   67000    299.19947    25.681776      2204118          147  0.007193656    13.625642    721.75994 
   67100    295.11475    25.287752      2204118          147  0.007193656    12.782294    711.24902 
   67200    298.31893    25.658585      2204118          147  0.007193656    14.892639     720.9429 
   67300    306.55403    25.421239      2204118          147  0.007193656    10.355589    735.89638 
   67400    302.70619    24.920238      2204118          147  0.007193656    8.0510839    724.48496 
   67500    293.51052    24.559579      2204118          147  0.007193656    8.3289947    702.99889 
   67600    293.65147    25.327306      2204118          147  0.007193656    13.471827     708.4753 
   67700    305.24491    26.349458      2204118          147  0.007193656    16.356494     738.7989 
   67800    307.61467    27.092582      2204118          147  0.007193656     20.66127    748.71234 
   67900    296.78237    27.228238      2204118          147  0.007193656    25.425643    727.83923 
   68000     297.0259     25.69748      2204118          147  0.007193656    13.526924    716.51689 
   68100    297.92949    26.121401      2204118          147  0.007193656    15.973265    721.10182 
   68200    301.14594    27.032474      2204118          147  0.007193656    21.050314    733.79145 
   68300    301.11836    28.214274      2204118          147  0.007193656    29.776274    742.45212 
   68400    304.02497    27.617334      2204118          147  0.007193656    24.718775    744.27388 
   68500    299.38579    27.004335      2204118          147  0.007193656    22.573787    731.14905 
   68600    294.38678    26.902107      2204118          147  0.007193656    24.177088    720.92088 
   68700    301.43729    26.287072      2204118          147  0.007193656    17.257498    730.68818 
   68800    301.54947    27.236577      2204118          147  0.007193656    24.160449    737.85664 
   68900    298.63832    28.190051      2204118          147  0.007193656    31.934711     738.7409 
   69000    301.93039    27.939561      2204118          147  0.007193656    28.773001    743.37073 
   69100    299.35969    28.493656      2204118          147  0.007193656    34.302632    742.81613 
   69200     301.8863    27.553144      2204118          147  0.007193656    27.129838    741.62321 
   69300    303.38308    25.667365      2204118          147  0.007193656    13.770326    731.80623 
   69400    295.02212    24.952918      2204118          147  0.007193656    12.150224    710.39771 
   69500    292.65087    25.582543      2204118          147  0.007193656    17.845218    710.48052 
   69600    303.57371    26.442874      2204118          147  0.007193656     20.35142    738.83851 
   69700    310.86952     26.37139      2204118          147  0.007193656    17.455292    753.20983 
   69800     302.1543     24.39592      2204118          147  0.007193656    5.7271395    720.85482 
   69900    284.40368     24.51705      2204118          147  0.007193656    12.385994    685.50215 
   70000    291.66982    26.143878      2204118          147  0.007193656    20.606831    710.92021 
   70100    313.56198    28.370803      2204118          147  0.007193656    27.982146    770.10909 
   70200    314.66655    28.748922      2204118          147  0.007193656    29.686726    774.42792 
   70300    291.60395    27.382641      2204118          147  0.007193656    27.630898    717.78839 
   70400    284.53928    26.338018      2204118          147  0.007193656    22.741308     696.1784 
   70500    303.80833    26.352602      2204118          147  0.007193656    16.375078    735.41745 
   70600      315.183    26.704567      2204118          147  0.007193656    15.173566     761.1371 
   70700    299.83026    25.996112      2204118          147  0.007193656    15.655554    725.28277 
   70800    286.22476     25.02875      2204118          147  0.007193656    13.373077    690.79931 
   70900    294.22887    25.672401      2204118          147  0.007193656    15.074473    711.44453 
   71000    313.42624    26.388985      2204118          147  0.007193656    12.522124    754.32782 
   71100    304.14594    28.056955      2204118          147  0.007193656     26.87231    746.71372 
   71200    289.54622    28.890006      2204118          147  0.007193656    37.177599    722.46493 
   71300    299.24002    28.143972      2204118          147  0.007193656    27.713367    735.94363 
   71400    308.82165    28.076994      2204118          147  0.007193656    24.266566    755.17428 
   71500    303.04239    27.256916      2204118          147  0.007193656    21.180484    738.41006 
   71600    291.58931    26.329725      2204118          147  0.007193656    19.404387    709.52722 
   71700    294.27818    26.108191      2204118          147  0.007193656    17.904535    714.39131 
   71800    308.15011    25.996258      2204118          147  0.007193656    13.093224    742.41155 
   71900    306.75761    25.730767      2204118          147  0.007193656    12.151219    738.17383 
   72000    291.93215    25.734714      2204118          147  0.007193656    17.496606    708.43087 
   72100    292.75986    25.654372      2204118          147  0.007193656    16.099445    708.99271 
   72200    301.19468    27.671986      2204118          147  0.007193656    27.233009     740.0895 
   72300    312.33833    28.061074      2204118          147  0.007193656     25.39977    764.63064 
   72400    303.39847    27.030384      2204118          147  0.007193656    20.614461    738.68678 
   72500    286.10245    26.736099      2204118          147  0.007193656    24.465508    701.60224 
   72600    294.41065    26.692952      2204118          147  0.007193656    21.156945    717.95722 
   72700     311.9823    27.274996      2204118          147  0.007193656    19.078696    757.46692 
   72800    304.33279    28.476161      2204118          147  0.007193656    30.589612    750.87326 
   72900    295.85233    26.972986      2204118          147  0.007193656    22.440551    722.65295 
   73000     294.4087    25.853206      2204118          147  0.007193656    14.956278    711.75195 
   73100    297.58137    26.804737      2204118          147  0.007193656    21.269296    725.57393 
   73200    308.03492    26.861906      2204118          147  0.007193656     18.14021    747.18592 
   73300    304.08017    26.560873      2204118          147  0.007193656    17.364084    737.04984 
   73400    289.58348    27.308824      2204118          147  0.007193656    28.108069     713.4836 
   73500    296.70086    27.485362      2204118          147  0.007193656    27.318863    729.53954 
   73600    313.84215    26.505657      2204118          147  0.007193656    14.818627    757.60867 
   73700     304.4562    25.291258      2204118          147  0.007193656     9.881001    730.45672 
   73800    283.39636     25.33797      2204118          147  0.007193656    18.140609    688.87267 
   73900    294.03142    25.109544      2204118          147  0.007193656     12.49831    708.40105 
   74000    313.18247    26.097764      2204118          147  0.007193656    12.497163    753.72589 
   74100    306.64543    27.195548      2204118          147  0.007193656    22.229678    747.98679 
   74200    290.90729    27.196205      2204118          147  0.007193656    27.370107    715.87878 
   74300     295.5592    25.889101      2204118          147  0.007193656     15.52758     715.0462 
   74400    301.08677    27.202115      2204118          147  0.007193656    22.740805    735.34189 
   74500      303.805    28.726907      2204118          147  0.007193656    31.939742    750.97424 
   74600    301.57866    29.555911      2204118          147  0.007193656    38.228078    751.99335 
   74700    302.41895    28.474876      2204118          147  0.007193656    29.677709    745.43175 
   74800    295.03539    28.717783      2204118          147  0.007193656    34.220252    732.49916 
   74900    297.64408    28.570433      2204118          147  0.007193656    32.212724    736.66578 
   75000    304.69872    28.611248      2204118          147  0.007193656    30.389821    751.53954 
   75100    308.43064    26.627856      2204118          147  0.007193656    14.446826    744.42911 
   75200    291.95129    26.087278      2204118          147  0.007193656    16.111487    707.09106 
   75300    286.99596    26.952503      2204118          147  0.007193656     23.80785    703.05932 
   75400    304.83784    28.407861      2204118          147  0.007193656    27.914853    749.39383 
   75500    317.49239    28.704025      2204118          147  0.007193656    25.723814    777.15311 
   75600    300.91899    27.296876      2204118          147  0.007193656    21.679073    733.88305 
   75700    281.27561     26.59455      2204118          147  0.007193656    23.950726    689.66348 
   75800    295.45367    26.416558      2204118          147  0.007193656    18.126521    717.39539 
   75900    318.18265    26.582417      2204118          147  0.007193656    11.461818    764.52479 
[...]
  381700    300.94466    28.716773      2204118          147  0.007193656    33.320516    745.58525 
  381800    306.51371    28.576144      2204118          147  0.007193656     29.20315    754.64851 
  381900    297.63445    28.479644      2204118          147  0.007193656    31.114503    735.54477 
  382000    290.45878     27.37756      2204118          147  0.007193656     25.15135    712.59849 
  382100    296.05085    27.970387      2204118          147  0.007193656    27.802377    728.48463 
  382200    318.45774    27.874816      2204118          147  0.007193656     19.44303    773.15709 
  382300    305.18156    27.313471      2204118          147  0.007193656    20.826161    743.11864 
  382400    297.74249    25.739519      2204118          147  0.007193656    11.818112    716.50408 
  382500    295.31239    26.366394      2204118          147  0.007193656    16.925736    715.86022 
  382600    303.28006    26.923456      2204118          147  0.007193656    17.589467    735.38155 
  382700    313.24117    27.716717      2204118          147  0.007193656    19.062699    760.43037 
  382800    307.44218    28.912017      2204118          147  0.007193656    29.510316    757.15314 
  382900    290.63781    27.856499      2204118          147  0.007193656    27.884122    715.75498 
  383000    293.24499    27.131996      2204118          147  0.007193656    22.582563      716.624 
  383100    312.48683    26.063127      2204118          147  0.007193656    8.6667371    748.24907 
  383200     304.4544    25.916908      2204118          147  0.007193656    11.137465    731.70893 
  383300    281.88646    25.479197      2204118          147  0.007193656    16.118397     683.2769 
  383400    290.83075    26.630363      2204118          147  0.007193656    21.640907    709.96842 
  383500    307.30324    26.184733      2204118          147  0.007193656    12.602443    739.91644 
  383600    304.33767    25.695796      2204118          147  0.007193656    9.9764745    730.27166 
  383700    288.02658    26.695336      2204118          147  0.007193656    22.745586     704.4363 
  383800    299.43698    27.443913      2204118          147  0.007193656    23.721288    732.41772 
  383900    318.88887    28.084463      2204118          147  0.007193656    21.453253    776.18769 
  384000    304.33613    27.341553      2204118          147  0.007193656    21.431286    741.72283 
  384100    294.41273    26.555976      2204118          147  0.007193656    19.234231    716.03945 
  384200    295.69391     26.88843      2204118          147  0.007193656    21.306174    721.14363 
  384300     311.4646    27.094732      2204118          147  0.007193656    16.939563    754.10252 
  384400    313.54365    27.945234      2204118          147  0.007193656    22.108624    764.19219 
  384500    289.70239    26.723813      2204118          147  0.007193656    21.457954    707.11489 
  384600    291.61847    25.928184      2204118          147  0.007193656    14.682721    704.87458 
  384700    302.05741    27.754978      2204118          147  0.007193656    24.524329    739.42268 
  384800    308.52461     28.16853      2204118          147  0.007193656    25.370511     755.5752 
  384900    300.06355      27.7836      2204118          147  0.007193656    25.876173    736.05553 
  385000    293.57351    28.119386      2204118          147  0.007193656    31.322879    726.14185 
  385100    302.56892    26.499555      2204118          147  0.007193656    16.711622     732.8206 
  385200    302.66732    25.560035      2204118          147  0.007193656    10.367321    726.70919 
  385300    293.50481    25.252343      2204118          147  0.007193656     11.57543    706.23181 
  385400    289.84425    25.419264      2204118          147  0.007193656    14.075986    700.06868 
  385500    310.07046     26.62289      2204118          147  0.007193656    15.816653       749.68 
  385600    312.26303    26.551475      2204118          147  0.007193656    14.869315    753.92195 
  385700    297.94503    25.114354      2204118          147  0.007193656    9.3510224    714.51634 
  385800    293.23117    25.578522      2204118          147  0.007193656     14.04354    708.05227 
  385900    296.42209    27.479303      2204118          147  0.007193656    25.867578    727.42846 
  386000    300.90563    29.549872      2204118          147  0.007193656    38.622502    750.79487 
  386100    306.03069    28.757824      2204118          147  0.007193656    30.281668    754.58384 
  386200    297.71648    29.689707      2204118          147  0.007193656     40.57374    745.19815 
  386300    303.01219    28.068182      2204118          147  0.007193656    27.234468    744.39257 
  386400    299.81638    26.758669      2204118          147  0.007193656    19.707619    729.30199 
  386500    280.86203    25.321845      2204118          147  0.007193656    16.332006    681.06591 
  386600    284.04812    26.977288      2204118          147  0.007193656    27.716699    699.99133 
  386700    301.02299    27.513687      2204118          147  0.007193656    25.547046    737.99717 
  386800    304.56063    27.393801      2204118          147  0.007193656    23.404402     744.2273 
  386900    298.48552    27.172791      2204118          147  0.007193656    23.953854     730.3984 
  387000    292.41264     26.50985      2204118          147  0.007193656    21.416998    713.48848 
  387100    297.78054    26.567984      2204118          147  0.007193656    20.171853    724.94788 
  387200     316.9429    26.788847      2204118          147  0.007193656    14.582774    764.71155 
  387300    302.78479    27.524139      2204118          147  0.007193656    24.330159    740.95006 
  387400    287.22126    28.258788      2204118          147  0.007193656    34.770313      714.555 
  387500    297.78983    27.856872      2204118          147  0.007193656    28.211232    733.00923 
  387600    305.89134    27.072417      2204118          147  0.007193656    20.458731    744.43109 
  387700    301.98242    25.892699      2204118          147  0.007193656    14.231898    728.95277 
  387800    288.94616    24.554945      2204118          147  0.007193656    10.263586    694.13071 
  387900    280.48724    22.533803      2204118          147  0.007193656  -0.59099097    663.25589 
  388000    289.60602    22.500381      2204118          147  0.007193656   -3.7155241    681.71333 
  388100    304.57579    24.905908      2204118          147  0.007193656    8.2356129    729.09438 
  388200    303.19277    26.486722      2204118          147  0.007193656    19.329065    736.91455 
  388300    295.60909     27.45861      2204118          147  0.007193656    28.290309    727.92703 
  388400    294.37657    28.374697      2204118          147  0.007193656    35.546007    732.26564 
  388500    318.05402    27.243431      2204118          147  0.007193656    19.125067    771.88361 
  388600    306.12222    26.525584      2204118          147  0.007193656    18.859954    743.37874 
  388700    292.05851    26.300871      2204118          147  0.007193656    22.973201    714.20654 
  388800    301.62882    25.102555      2204118          147  0.007193656     11.07966    724.96365 
  388900    304.90563    24.953708      2204118          147  0.007193656    8.9058261    730.54524 
  389000    291.45985    24.899677      2204118          147  0.007193656    12.623296    702.43975 
  389100    279.22227     25.42671      2204118          147  0.007193656    20.109084    680.96208 
  389200     298.2104    27.538407      2204118          147  0.007193656    28.370299     734.1637 
  389300    307.18242    27.147305      2204118          147  0.007193656    22.078646    749.10668 
  389400    302.66421    25.614424      2204118          147  0.007193656    12.539813    728.87432 
  389500    291.02875    24.523155      2204118          147  0.007193656    8.4632617     697.2594 
  389600    290.46071    25.999214      2204118          147  0.007193656    18.896319    706.34802 
  389700    308.95925    28.073434      2204118          147  0.007193656    26.838771    758.07215 
  389800    306.94696    27.828331      2204118          147  0.007193656    25.204527    751.67528 
  389900    297.81807    26.805137      2204118          147  0.007193656    20.548925    725.41376 
  390000    293.28198    26.305012      2204118          147  0.007193656    18.030257    712.15926 
  390100    297.92062     28.45473      2204118          147  0.007193656    31.836011    736.94357 
  390200    319.42711    28.977953      2204118          147  0.007193656    27.932636    783.94096 
  390300    309.04098    27.178152      2204118          147  0.007193656    18.969052    750.39586 
  390400    297.76065    26.313477      2204118          147  0.007193656    17.264322    721.99326 
  390500    295.44283    26.141562      2204118          147  0.007193656    17.400942    716.64415 
  390600    302.34597    26.684839      2204118          147  0.007193656    19.571202     735.1525 
  390700    319.35269    26.410972      2204118          147  0.007193656    12.078005     767.9102 
  390800    301.52144    25.253435      2204118          147  0.007193656    10.558128    724.18797 
  390900    291.24147    24.289735      2204118          147  0.007193656     6.987957    696.28755 
  391000    298.11675    25.134852      2204118          147  0.007193656    10.350682    715.92243 
  391100    307.68846     26.20378      2204118          147  0.007193656    14.132021    742.35773 
  391200    304.66066    26.230829      2204118          147  0.007193656    14.493222    735.55285 
  391300    282.60685     25.05993      2204118          147  0.007193656     12.80744    681.67093 
  391400    283.87463    26.465211      2204118          147  0.007193656    21.729496    693.59351 
  391500    295.02071    28.565328      2204118          147  0.007193656    32.873358    731.11752 
  391600     306.4581    28.199062      2204118          147  0.007193656      26.4224    751.73615 
  391700    306.20942    26.748172      2204118          147  0.007193656    16.734379    741.45956 
  391800    291.13178    25.352624      2204118          147  0.007193656    12.795655    701.83563 
  391900     291.3372    25.180675      2204118          147  0.007193656    11.963289    701.48944 
  392000    302.25974    26.794534      2204118          147  0.007193656     20.17457     735.5518 
  392100    305.33385    27.083601      2204118          147  0.007193656    21.291881     743.9448 
  392200    298.68676    27.310959      2204118          147  0.007193656    25.823901    732.74472 
  392300    299.52493    25.851754      2204118          147  0.007193656    15.562407    724.46698 
  392400    299.61921    23.945544      2204118          147  0.007193656     1.894594    711.02231 
  392500    283.61362    24.807439      2204118          147  0.007193656    14.163253    685.40953 
  392600    298.31854    25.615543      2204118          147  0.007193656    14.717141    720.76648 
  392700    310.47274    26.143839      2204118          147  0.007193656    14.161834    748.97729 
  392800    298.86774    26.570886      2204118          147  0.007193656    21.798228    729.14739 
  392900    297.53992    24.713251      2204118          147  0.007193656    9.0833483    713.28987 
  393000    295.74593    23.393954      2204118          147  0.007193656   0.49678158    700.45736 
  393100    284.70547    23.727746      2204118          147  0.007193656    6.9506016    680.78101 
  393200    297.80267    24.985141      2204118          147  0.007193656    10.999912    715.82831 
  393300    308.17046    26.353063      2204118          147  0.007193656    16.867012     746.2335 
  393400    301.77915    26.469027      2204118          147  0.007193656    19.382694    733.62248 
  393500    290.35748    25.938632      2204118          147  0.007193656     18.98596    706.19335 
  393600    290.53014     26.32702      2204118          147  0.007193656    21.453904    709.06994 
  393700    313.40478    27.751353      2204118          147  0.007193656    23.387918     765.1428 
  393800    305.46767    28.427528      2204118          147  0.007193656    31.125706    754.09534 
  393900    293.94728    27.234196      2204118          147  0.007193656     27.09153    722.79513 
  394000    299.37708    24.862303      2204118          147  0.007193656    8.4479322    717.00259 
  394100    301.32956    24.327245      2204118          147  0.007193656    4.1745411    717.35025 
  394200    295.18178    25.025477      2204118          147  0.007193656    11.502842    710.12821 
  394300     297.9371    25.526256      2204118          147  0.007193656    13.781578    718.92813 
  394400    307.20126    26.292808      2204118          147  0.007193656    15.622006    742.69463 
  394500    304.46862    27.202156      2204118          147  0.007193656    23.115778    743.72089 
  394600    293.97974    25.359699      2204118          147  0.007193656    13.476956    709.25738 
  394700    286.68656    24.052216      2204118          147  0.007193656    6.7455842    685.26478 
  394800    301.39466    25.335284      2204118          147  0.007193656    11.179918    724.50969 
  394900    312.56649    25.639411      2204118          147  0.007193656    9.3978642    749.16871 
  395000    300.77333    25.518138      2204118          147  0.007193656    12.591446    724.45069 
  395100    291.54353    25.961573      2204118          147  0.007193656    19.005215    709.01971 
  395200    301.61344    26.232544      2204118          147  0.007193656    17.144412    730.99199 
  395300    314.76725    28.124139      2204118          147  0.007193656    26.390212    771.36976 
  395400    307.19352    27.293433      2204118          147  0.007193656    23.005637    750.05995 
  395500    288.48502    25.230498      2204118          147  0.007193656    14.898576     697.6743 
  395600     297.3735    25.136458      2204118          147  0.007193656    11.662728    715.47539 
  395700    310.04035     25.22591      2204118          147  0.007193656    8.5542664    742.34636 
  395800    304.10809     24.32838      2204118          147  0.007193656    4.3637056    724.11554 
  395900    285.60093    23.879497      2204118          147  0.007193656    7.5912229    683.54099 
  396000    291.70227    24.347627      2204118          147  0.007193656    8.0085369    698.39872 
  396100    298.32572    25.526234      2204118          147  0.007193656    13.148525    719.21485 
  396200    298.43538    27.989128      2204118          147  0.007193656    30.052087    736.37796 
  396300    306.23344    28.967012      2204118          147  0.007193656    33.338895    758.12093 
  396400    309.40903    28.972125      2204118          147  0.007193656    31.976183    764.27409 
  396500    290.54584    27.446716      2204118          147  0.007193656    27.821485    715.47469 
  396600    288.38772    26.965097      2204118          147  0.007193656    25.519692    708.06512 
  396700    304.15796    27.774311      2204118          147  0.007193656    26.611978    746.48184 
  396800    311.11561    26.655624      2204118          147  0.007193656    16.190066    752.52703 
  396900    297.48828    26.934412      2204118          147  0.007193656    23.258383    727.34268 
  397000    293.95994    27.689406      2204118          147  0.007193656    29.714993    725.44855 
  397100    301.21374    27.677567      2204118          147  0.007193656     26.56258    739.46417 
  397200    301.25273    28.468549      2204118          147  0.007193656    32.362034     745.3559 
  397300    303.67597     27.07529      2204118          147  0.007193656    21.181735    739.91083 
  397400    282.74197    25.326971      2204118          147  0.007193656    15.832118     685.0154 
  397500    284.48742    26.105581      2204118          147  0.007193656    20.807059    694.12142 
  397600    302.52241    27.125486      2204118          147  0.007193656    21.695222    737.69412 
  397700    306.16077    27.156812      2204118          147  0.007193656    20.625838    745.23587 
  397800    297.51599    26.836061      2204118          147  0.007193656    21.772398    725.92228 
  397900    290.33699    25.154451      2204118          147  0.007193656    12.310837    699.46972 
  398000    286.03457    25.571499      2204118          147  0.007193656    17.183994    694.16009 
  398100    307.08484     27.40291      2204118          147  0.007193656     23.22673    750.02383 
  398200    309.79221    27.245246      2204118          147  0.007193656    21.165779    754.37057 
  398300    294.46377    26.754559      2204118          147  0.007193656    23.390195     720.3162 
  398400    294.82655    25.336964      2204118          147  0.007193656    12.834186    710.61882 
  398500      303.992    25.940574      2204118          147  0.007193656    14.136803    733.61387 
  398600    326.10392    26.608853      2204118          147  0.007193656    10.823516    782.63427 
  398700    305.07717    26.234875      2204118          147  0.007193656    15.181876    737.22729 
  398800      290.764    27.993902      2204118          147  0.007193656    33.048228    721.21775 
  398900    305.44843    26.909829      2204118          147  0.007193656    19.709277    742.63337 
  399000    309.22008    26.084815      2204118          147  0.007193656    12.676902     744.5276 
  399100    289.61217    25.795718      2204118          147  0.007193656    17.905337    703.34876 
  399200    291.31314    25.224115      2204118          147  0.007193656    12.916605    702.38581 
  399300    305.94076     26.63526      2204118          147  0.007193656    18.195376    742.28469 
  399400    312.03941    25.991578      2204118          147  0.007193656    11.280689    749.80407 
  399500    302.79757    25.247746      2204118          147  0.007193656    9.3122847    725.96243 
  399600    291.14866     25.28893      2204118          147  0.007193656    13.931094    703.01101 
  399700    297.81517    25.243119      2204118          147  0.007193656    11.190072    716.04804 
  399800    311.70127    26.019054      2204118          147  0.007193656    11.771396    749.49449 
  399900    302.87518    27.112048      2204118          147  0.007193656    22.877259    739.71109 
  400000    281.14998     26.00223      2204118          147  0.007193656    21.940122    687.35553 
  400100    285.03801    27.757563      2204118          147  0.007193656    33.512713    708.13017 
Loop time of 23.6826 on 1 procs for 400000 steps with 795 atoms

Performance: 364.824 ns/day, 0.066 hours/ns, 16890.003 timesteps/s
95.8% CPU use with 1 MPI tasks x no OpenMP threads

MPI task timing breakdown:
Section |  min time  |  avg time  |  max time  |%varavg| %total
---------------------------------------------------------------
Pair    | 11.517     | 11.517     | 11.517     |   0.0 | 48.63
Neigh   | 2.9364     | 2.9364     | 2.9364     |   0.0 | 12.40
Comm    | 0.80275    | 0.80275    | 0.80275    |   0.0 |  3.39
Output  | 1.664      | 1.664      | 1.664      |   0.0 |  7.03
Modify  | 6.1337     | 6.1337     | 6.1337     |   0.0 | 25.90
Other   |            | 0.6284     |            |       |  2.65

Nlocal:            795 ave         795 max         795 min
Histogram: 1 0 0 0 0 0 0 0 0 0
Nghost:            142 ave         142 max         142 min
Histogram: 1 0 0 0 0 0 0 0 0 0
Neighs:           1610 ave        1610 max        1610 min
Histogram: 1 0 0 0 0 0 0 0 0 0

Total # of neighbors = 1610
Ave neighs/atom = 2.0251572
Neighbor list builds = 9465
Dangerous builds = 12

write_data graphene_single_layer_LJ_795C_after_temp_300K.data
System init for write_data ...
  generated 0 of 0 mixed pair_coeff terms from geometric mixing rule
Total wall time: 0:00:23
