# System definition
read_data graphene_single_layer_x-45_y-45_795_C.data  ### MODIFY FILE NAME ###
Reading data file ...
  orthogonal box = (-1.4464652 -1.4423034 -1.42) to (47.285152 47.149102 1.42)
  8 by 8 by 1 MPI processor grid
  reading atoms ...
  795 atoms
  reading velocities ...
  795 velocities
  read_data CPU = 0.049 seconds
pair_style lj/cut 6
pair_coeff      1 1 0.066047 3.4

# Virtual force wall to keep the cylinder shape
#region myCylinder cylinder z 0. 0. 20.3 -22.079997 505.920003 units box
#fix wall all wall/region myCylinder lj93 1.0 1.0 2.5

# Minimization
timestep 0.25
thermo 100
thermo_style custom step temp press vol lx density pe etotal
dump 2 all custom 1000 graphene_single_layer_LJ_795C_after_temp_300K.lammpstrj id type x y z ### MODIFY FILE NAME ###
min_style cg
minimize 1.0e-6 1.0e-6 100 1000
WARNING: Using 'neigh_modify every 1 delay 0 check yes' setting during minimization (src/min.cpp:187)
Generated 0 of 0 mixed pair_coeff terms from geometric mixing rule
Neighbor list info ...
  update every 1 steps, delay 0 steps, check yes
  max neighbors/atom: 10000, page size: 100000
  master list distance cutoff = 6.4
  ghost atom cutoff = 6.4
  binsize = 3.2, bins = 16 16 1
  1 neighbor lists, perpetual/occasional/extra = 1 0 0
  (1) pair lj/cut, perpetual
      attributes: half, newton on
      pair build: half/bin/atomonly/newton
      stencil: half/bin/3d
      bin: standard
Per MPI rank memory allocation (min/avg/max) = 5.47 | 5.472 | 5.472 Mbytes
   Step          Temp          Press          Volume           Lx          Density         PotEng         TotEng    
         0   923            3.5764745e+08  6724.9433      48.731617      2.3577398      8739313.6      8741498.1    
       100   923            47390520       6724.9433      48.731617      2.3577398      1146833.4      1149017.9    
Loop time of 0.0271484 on 64 procs for 100 steps with 795 atoms

96.2% CPU use with 64 MPI tasks x 1 OpenMP threads

Minimization stats:
  Stopping criterion = max iterations
  Energy initial, next-to-last, final = 
      8739313.57439336   1156380.83320826   1146833.40532139
  Force two-norm initial, final = 757147.49 28301.772
  Force max component initial, final = 127132.22 7330.8006
  Final line search alpha, max atom move = 9.6526089e-06 0.070761352
  Iterations, force evaluations = 100 123

MPI task timing breakdown:
Section |  min time  |  avg time  |  max time  |%varavg| %total
---------------------------------------------------------------
Pair    | 0.0017399  | 0.0025751  | 0.0033054  |   0.7 |  9.49
Neigh   | 0.0010594  | 0.0015841  | 0.0020108  |   0.5 |  5.83
Comm    | 0.0089671  | 0.010048   | 0.011303   |   0.5 | 37.01
Output  | 8.8341e-05 | 9.1513e-05 | 0.00011063 |   0.0 |  0.34
Modify  | 0          | 0          | 0          |   0.0 |  0.00
Other   |            | 0.01285    |            |       | 47.33

Nlocal:        12.4219 ave          15 max           9 min
Histogram: 1 3 0 11 0 17 19 0 11 2
Nghost:        579.656 ave         611 max         547 min
Histogram: 1 5 5 9 9 13 9 7 4 2
Neighs:        790.734 ave         969 max         597 min
Histogram: 3 2 10 1 15 7 13 5 7 1

Total # of neighbors = 50607
Ave neighs/atom = 63.656604
Neighbor list builds = 37
Dangerous builds = 0
#timestep 0.25
fix 1 all nvt temp 300.0 300.0 $(100.0*dt) ### MODIFY INITIAL TEMP, FINAL TEMP ###
fix 1 all nvt temp 300.0 300.0 25 
run 400000
Generated 0 of 0 mixed pair_coeff terms from geometric mixing rule
Per MPI rank memory allocation (min/avg/max) = 4.346 | 4.347 | 4.347 Mbytes
   Step          Temp          Press          Volume           Lx          Density         PotEng         TotEng    
       100   923            47390520       6724.9433      48.731617      2.3577398      1146833.4      1149017.9    
       200   7970.1747      9641236.5      6724.9433      48.731617      2.3577398      224325.8       243189.32    
       300   2407.8813      7995633.6      6724.9433      48.731617      2.3577398      186515.11      192213.99    
       400   1114.1989      7507766.9      6724.9433      48.731617      2.3577398      175173.25      177810.3     
       500   874.63585      7272980.2      6724.9433      48.731617      2.3577398      169565.31      171635.36    
       600   557.00241      7130823.1      6724.9433      48.731617      2.3577398      166241.93      167560.22    
       700   437.8416       7055849.9      6724.9433      48.731617      2.3577398      164471.36      165507.63    
       800   611.40819      6958622        6724.9433      48.731617      2.3577398      162045.43      163492.49    
       900   447.86483      6836261.1      6724.9433      48.731617      2.3577398      159146.75      160206.74    
      1000   298.22289      6793108.2      6724.9433      48.731617      2.3577398      158160.45      158866.27    
      1100   225.78645      6773551.7      6724.9433      48.731617      2.3577398      157712.28      158246.67    
      1200   285.14877      6754847.9      6724.9433      48.731617      2.3577398      157238.37      157913.25    
      1300   283.65273      6746460.6      6724.9433      48.731617      2.3577398      157035.28      157706.61    
      1400   310.69108      6738064.3      6724.9433      48.731617      2.3577398      156820.51      157555.84    
      1500   348.52035      6725020        6724.9433      48.731617      2.3577398      156489.29      157314.16    
      1600   331.30838      6706222.7      6724.9433      48.731617      2.3577398      156039.3       156823.43    
      1700   253.49088      6693263.2      6724.9433      48.731617      2.3577398      155755.24      156355.2     
      1800   260.89989      6683183.2      6724.9433      48.731617      2.3577398      155508.04      156125.53    
      1900   406.93911      6663401        6724.9433      48.731617      2.3577398      154970.66      155933.79    
      2000   350.04694      6641613.7      6724.9433      48.731617      2.3577398      154465.27      155293.75    
      2100   219.22996      6629133.1      6724.9433      48.731617      2.3577398      154213.82      154732.68    
      2200   197.01825      6624887.3      6724.9433      48.731617      2.3577398      154118.61      154584.9     
      2300   254.01043      6627472.2      6724.9433      48.731617      2.3577398      154159.45      154760.64    
      2400   336.75567      6637330        6724.9433      48.731617      2.3577398      154367.24      155164.26    
      2500   405.77345      6641976.2      6724.9433      48.731617      2.3577398      154454.08      155414.45    
      2600   426.15439      6619524.1      6724.9433      48.731617      2.3577398      153902.2       154910.81    
      2700   335.33011      6587756.5      6724.9433      48.731617      2.3577398      153168.83      153962.47    
      2800   243.49752      6566434.6      6724.9433      48.731617      2.3577398      152687.44      153263.74    
      2900   195.16658      6558464.6      6724.9433      48.731617      2.3577398      152513.83      152975.74    
      3000   229.75167      6557565.7      6724.9433      48.731617      2.3577398      152478.88      153022.65    
      3100   381.56668      6556158        6724.9433      48.731617      2.3577398      152384.31      153287.39    
      3200   341.11202      6553533.8      6724.9433      48.731617      2.3577398      152334.91      153142.24    
      3300   247.37999      6549322.8      6724.9433      48.731617      2.3577398      152269.57      152855.06    
      3400   246.8002       6546506.3      6724.9433      48.731617      2.3577398      152201.4       152785.52    
      3500   272.99554      6550374.6      6724.9433      48.731617      2.3577398      152286.47      152932.59    
      3600   344.17838      6555076.8      6724.9433      48.731617      2.3577398      152373.27      153187.86    
      3700   381.66678      6551489.9      6724.9433      48.731617      2.3577398      152272.59      153175.91    
      3800   294.80436      6543501.3      6724.9433      48.731617      2.3577398      152112.18      152809.91    
      3900   261.77869      6534971.1      6724.9433      48.731617      2.3577398      151918.06      152537.63    
      4000   246.78448      6533127.8      6724.9433      48.731617      2.3577398      151879.87      152463.96    
      4100   273.29639      6536932.7      6724.9433      48.731617      2.3577398      151961.49      152608.32    
      4200   324.0363       6544027.9      6724.9433      48.731617      2.3577398      152111.87      152878.79    
      4300   376.59072      6544825.5      6724.9433      48.731617      2.3577398      152111.62      153002.92    
      4400   313.00737      6538979.9      6724.9433      48.731617      2.3577398      151996.39      152737.21    
      4500   277.41444      6529429.5      6724.9433      48.731617      2.3577398      151776.34      152432.92    
      4600   257.66071      6523611        6724.9433      48.731617      2.3577398      151642.92      152252.74    
      4700   270.21927      6521569.2      6724.9433      48.731617      2.3577398      151587.7       152227.24    
      4800   311.65741      6523048.8      6724.9433      48.731617      2.3577398      151607.87      152345.49    
      4900   308.0013       6528931.6      6724.9433      48.731617      2.3577398      151751.01      152479.98    
      5000   341.40826      6529393.7      6724.9433      48.731617      2.3577398      151750.06      152558.09    
      5100   314.55197      6528499.5      6724.9433      48.731617      2.3577398      151738.37      152482.84    
      5200   275.11569      6525784.2      6724.9433      48.731617      2.3577398      151687.47      152338.6     
      5300   286.41971      6522277.4      6724.9433      48.731617      2.3577398      151598.23      152276.12    
      5400   281.73451      6524344.8      6724.9433      48.731617      2.3577398      151650.75      152317.55    
      5500   302.04469      6525878        6724.9433      48.731617      2.3577398      151679.34      152394.21    
      5600   305.8154       6526350.1      6724.9433      48.731617      2.3577398      151689.34      152413.13    
      5700   341.51361      6520977.6      6724.9433      48.731617      2.3577398      151547.91      152356.2     
      5800   291.47774      6514216.6      6724.9433      48.731617      2.3577398      151404.15      152094.01    
      5900   260.0932       6509053.6      6724.9433      48.731617      2.3577398      151291.14      151906.72    
      6000   270.3624       6506902.7      6724.9433      48.731617      2.3577398      151233.64      151873.53    
      6100   298.51351      6508083.7      6724.9433      48.731617      2.3577398      151251.54      151958.05    
      6200   316.11835      6511626.9      6724.9433      48.731617      2.3577398      151330.56      152078.74    
      6300   324.81616      6513283.3      6724.9433      48.731617      2.3577398      151367.2       152135.97    
      6400   331.92571      6509763.1      6724.9433      48.731617      2.3577398      151278.75      152064.34    
      6500   301.20392      6505575.4      6724.9433      48.731617      2.3577398      151189.44      151902.31    
      6600   311.44702      6496256.5      6724.9433      48.731617      2.3577398      150961         151698.12    
      6700   265.46102      6491991.4      6724.9433      48.731617      2.3577398      150873.33      151501.61    
      6800   267.16246      6489720.6      6724.9433      48.731617      2.3577398      150817.98      151450.29    
      6900   284.16332      6491738.5      6724.9433      48.731617      2.3577398      150860.5       151533.04    
      7000   319.52104      6494047.8      6724.9433      48.731617      2.3577398      150904.13      151660.37    
      7100   308.83956      6497565        6724.9433      48.731617      2.3577398      150991.87      151722.82    
      7200   306.62411      6496476        6724.9433      48.731617      2.3577398      150965.82      151691.52    
      7300   297.59406      6495095.3      6724.9433      48.731617      2.3577398      150936.81      151641.15    
      7400   288.89669      6494361.5      6724.9433      48.731617      2.3577398      150922.91      151606.66    
      7500   307.42644      6492896.6      6724.9433      48.731617      2.3577398      150880.56      151608.17    
      7600   294.61342      6493437        6724.9433      48.731617      2.3577398      150897.69      151594.97    
      7700   292.23549      6491162.9      6724.9433      48.731617      2.3577398      150843.09      151534.74    
      7800   284.9646       6491054.5      6724.9433      48.731617      2.3577398      150843.65      151518.09    
      7900   283.63458      6493434.8      6724.9433      48.731617      2.3577398      150902.16      151573.45    
      8000   304.11763      6494833        6724.9433      48.731617      2.3577398      150928.17      151647.95    
      8100   304.62669      6495602.9      6724.9433      48.731617      2.3577398      150945.08      151666.06    
      8200   324.00299      6493180.8      6724.9433      48.731617      2.3577398      150879.5       151646.34    
      8300   306.27582      6490792.3      6724.9433      48.731617      2.3577398      150828.91      151553.79    
      8400   280.59166      6488827        6724.9433      48.731617      2.3577398      150791.59      151455.68    
      8500   283.53109      6488222.7      6724.9433      48.731617      2.3577398      150775.99      151447.04    
      8600   287.83609      6490933.2      6724.9433      48.731617      2.3577398      150839.04      151520.28    
      8700   311.46428      6493802.3      6724.9433      48.731617      2.3577398      150900.06      151637.22    
      8800   321.16469      6495675.8      6724.9433      48.731617      2.3577398      150942.3       151702.42    
      8900   318.9521       6494527.1      6724.9433      48.731617      2.3577398      150914.88      151669.76    
      9000   291.53485      6492055.2      6724.9433      48.731617      2.3577398      150865.5       151555.5     
      9100   271.98994      6489485.4      6724.9433      48.731617      2.3577398      150810.1       151453.84    
      9200   277.78539      6488578        6724.9433      48.731617      2.3577398      150786.99      151444.45    
      9300   286.30801      6491102.2      6724.9433      48.731617      2.3577398      150843.97      151521.59    
      9400   315.94512      6493547.7      6724.9433      48.731617      2.3577398      150891.66      151639.43    
      9500   320.63916      6494997.2      6724.9433      48.731617      2.3577398      150924.25      151683.13    
      9600   322.85471      6492944.7      6724.9433      48.731617      2.3577398      150874.13      151638.25    
      9700   293.75845      6491771        6724.9433      48.731617      2.3577398      150857.48      151552.74    
      9800   286.30315      6490097.2      6724.9433      48.731617      2.3577398      150819.29      151496.9     
      9900   283.96964      6490492.5      6724.9433      48.731617      2.3577398      150829.94      151502.03    
     10000   294.51424      6491882.4      6724.9433      48.731617      2.3577398      150858.95      151556       
     10100   321.31795      6491486.3      6724.9433      48.731617      2.3577398      150840.53      151601.01    
     10200   304.99914      6492402        6724.9433      48.731617      2.3577398      150867.83      151589.69    
     10300   299.52949      6491717.7      6724.9433      48.731617      2.3577398      150854.23      151563.14    
     10400   305.39989      6491130.7      6724.9433      48.731617      2.3577398      150837.93      151560.74    
     10500   292.2068       6493023.4      6724.9433      48.731617      2.3577398      150889.06      151580.64    
     10600   321.82446      6491751.8      6724.9433      48.731617      2.3577398      150847.89      151609.57    
     10700   304.64858      6491875        6724.9433      48.731617      2.3577398      150854.47      151575.51    
     10800   294.28055      6490236.7      6724.9433      48.731617      2.3577398      150819.53      151516.02    
     10900   272.3566       6490817.8      6724.9433      48.731617      2.3577398      150842.13      151486.73    
     11000   292.38574      6490887.5      6724.9433      48.731617      2.3577398      150836.3       151528.31    
     11100   299.94927      6493655.2      6724.9433      48.731617      2.3577398      150900.4       151610.31    
     11200   325.9706       6495012.2      6724.9433      48.731617      2.3577398      150922.91      151694.4     
     11300   327.73744      6494136.1      6724.9433      48.731617      2.3577398      150900.8       151676.48    
     11400   305.03807      6491186.9      6724.9433      48.731617      2.3577398      150838.78      151560.73    
     11500   269.17902      6489073.9      6724.9433      48.731617      2.3577398      150802.22      151439.3     
     11600   273.4099       6487988.5      6724.9433      48.731617      2.3577398      150774.27      151421.36    
     11700   278.94839      6491243.6      6724.9433      48.731617      2.3577398      150850.66      151510.86    
     11800   312.96256      6494550.2      6724.9433      48.731617      2.3577398      150917.46      151658.17    
     11900   348.15792      6495360.2      6724.9433      48.731617      2.3577398      150924.42      151748.43    
     12000   326.07813      6494082.6      6724.9433      48.731617      2.3577398      150902.66      151674.41    
     12100   301.10626      6490081.7      6724.9433      48.731617      2.3577398      150814.38      151527.03    
     12200   274.63867      6487465.6      6724.9433      48.731617      2.3577398      150760.46      151410.46    
     12300   272.92664      6487884.8      6724.9433      48.731617      2.3577398      150770.69      151416.64    
     12400   298.7256       6491027.3      6724.9433      48.731617      2.3577398      150837.53      151544.54    
     12500   334.00037      6494267.3      6724.9433      48.731617      2.3577398      150903.12      151693.62    
     12600   322.51977      6496820.2      6724.9433      48.731617      2.3577398      150967.72      151731.05    
     12700   303.72041      6494329        6724.9433      48.731617      2.3577398      150914.65      151633.48    
     12800   283.45368      6491109.2      6724.9433      48.731617      2.3577398      150845.5       151516.37    
     12900   272.29539      6489425.7      6724.9433      48.731617      2.3577398      150810         151454.46    
     13000   284.7049       6489462.7      6724.9433      48.731617      2.3577398      150805.36      151479.18    
     13100   306.47535      6491232.5      6724.9433      48.731617      2.3577398      150840.44      151565.79    
     13200   317.30605      6492829.6      6724.9433      48.731617      2.3577398      150874.75      151625.74    
     13300   296.63621      6493357.8      6724.9433      48.731617      2.3577398      150896.16      151598.23    
     13400   289.31736      6491910.2      6724.9433      48.731617      2.3577398      150864.65      151549.4     
     13500   289.46717      6491128.8      6724.9433      48.731617      2.3577398      150845.02      151530.12    
     13600   291.97964      6491137.4      6724.9433      48.731617      2.3577398      150844.34      151535.38    
     13700   298.20019      6490737.4      6724.9433      48.731617      2.3577398      150831.06      151536.82    
     13800   302.57768      6490109.4      6724.9433      48.731617      2.3577398      150814.11      151530.24    
     13900   298.46629      6490394.5      6724.9433      48.731617      2.3577398      150822.9       151529.3     
     14000   291.11845      6491333.3      6724.9433      48.731617      2.3577398      150847.73      151536.74    
     14100   301.42374      6492011.7      6724.9433      48.731617      2.3577398      150860.04      151573.44    
     14200   291.35212      6494455.2      6724.9433      48.731617      2.3577398      150923.01      151612.57    
     14300   308.67442      6492958.6      6724.9433      48.731617      2.3577398      150881.1       151611.66    
     14400   301.0374       6490678        6724.9433      48.731617      2.3577398      150828.57      151541.06    
     14500   283.5663       6489261.4      6724.9433      48.731617      2.3577398      150800.54      151471.67    
     14600   285.74585      6488740.7      6724.9433      48.731617      2.3577398      150787.58      151463.88    
     14700   283.86547      6490950.5      6724.9433      48.731617      2.3577398      150842.3       151514.15    
     14800   301.12419      6492996.2      6724.9433      48.731617      2.3577398      150885.9       151598.59    
     14900   330.79416      6493325.1      6724.9433      48.731617      2.3577398      150882.76      151665.67    
     15000   326.77325      6492503.7      6724.9433      48.731617      2.3577398      150863.3       151636.7     
     15100   287.6373       6490882.9      6724.9433      48.731617      2.3577398      150838.23      151519       
     15200   281.25531      6487938.6      6724.9433      48.731617      2.3577398      150770.25      151435.91    
     15300   290.56713      6487805.9      6724.9433      48.731617      2.3577398      150762.64      151450.34    
     15400   295.54828      6490759.1      6724.9433      48.731617      2.3577398      150832.86      151532.36    
     15500   306.96222      6493626.4      6724.9433      48.731617      2.3577398      150896.77      151623.28    
     15600   339.61064      6492924.3      6724.9433      48.731617      2.3577398      150868.71      151672.49    
     15700   318.47754      6492068.1      6724.9433      48.731617      2.3577398      150855.81      151609.57    
     15800   282.51426      6490456.2      6724.9433      48.731617      2.3577398      150830.51      151499.15    
     15900   279.08262      6488618.2      6724.9433      48.731617      2.3577398      150786.79      151447.31    
     16000   296.7613       6488723.7      6724.9433      48.731617      2.3577398      150782.5       151484.86    
     16100   310.43785      6490645.5      6724.9433      48.731617      2.3577398      150824.06      151558.79    
     16200   304.64545      6493167.9      6724.9433      48.731617      2.3577398      150889.43      151610.46    
     16300   303.63203      6493458.8      6724.9433      48.731617      2.3577398      150896.1       151614.72    
     16400   303.16345      6491527.6      6724.9433      48.731617      2.3577398      150848.84      151566.35    
     16500   280.73977      6491019.5      6724.9433      48.731617      2.3577398      150845.24      151509.69    
     16600   289.28092      6490154.5      6724.9433      48.731617      2.3577398      150821.24      151505.9     
     16700   304.23034      6490352.5      6724.9433      48.731617      2.3577398      150820.16      151540.2     
     16800   292.86329      6492097.2      6724.9433      48.731617      2.3577398      150864.97      151558.11    
     16900   296.97697      6491541.5      6724.9433      48.731617      2.3577398      150851         151553.87    
     17000   300.56111      6491048        6724.9433      48.731617      2.3577398      150837.85      151549.21    
     17100   289.21198      6492004        6724.9433      48.731617      2.3577398      150865.87      151550.36    
     17200   304.53298      6491325.5      6724.9433      48.731617      2.3577398      150842.74      151563.5     
     17300   314.55789      6491413.6      6724.9433      48.731617      2.3577398      150839.82      151584.3     
     17400   316.10774      6491003.5      6724.9433      48.731617      2.3577398      150830.22      151578.37    
     17500   296.78952      6490367.5      6724.9433      48.731617      2.3577398      150823.56      151525.99    
     17600   284.6465       6489475.3      6724.9433      48.731617      2.3577398      150806.3       151479.99    
     17700   296.90552      6489363.8      6724.9433      48.731617      2.3577398      150798.47      151501.17    
     17800   307.2808       6490816        6724.9433      48.731617      2.3577398      150830.31      151557.57    
     17900   312.31387      6492712.1      6724.9433      48.731617      2.3577398      150873.86      151613.03    
     18000   323.67889      6492868.6      6724.9433      48.731617      2.3577398      150873.44      151639.51    
     18100   328.54661      6490466.8      6724.9433      48.731617      2.3577398      150812.92      151590.51    
     18200   285.32661      6489506.3      6724.9433      48.731617      2.3577398      150806.2       151481.5     
     18300   274.88341      6488275.3      6724.9433      48.731617      2.3577398      150780.13      151430.71    
     18400   290.35792      6489316.1      6724.9433      48.731617      2.3577398      150799.44      151486.65    
     18500   313.83903      6491746.4      6724.9433      48.731617      2.3577398      150850.65      151593.43    
     18600   320.68371      6493930.4      6724.9433      48.731617      2.3577398      150899.59      151658.58    
     18700   323.99608      6493237.2      6724.9433      48.731617      2.3577398      150881.22      151648.05    
     18800   309.02379      6490876.1      6724.9433      48.731617      2.3577398      150830.43      151561.81    
     18900   288.58833      6487921.3      6724.9433      48.731617      2.3577398      150767.27      151450.29    
     19000   272.81617      6488134.3      6724.9433      48.731617      2.3577398      150778.19      151423.88    
     19100   300.34023      6489304.9      6724.9433      48.731617      2.3577398      150795.22      151506.05    
     19200   317.095        6492691.2      6724.9433      48.731617      2.3577398      150871.69      151622.18    
     19300   314.55706      6494714.4      6724.9433      48.731617      2.3577398      150921.21      151665.69    
     19400   307.63698      6493411.7      6724.9433      48.731617      2.3577398      150893.79      151621.9     
     19500   297.55666      6490309.7      6724.9433      48.731617      2.3577398      150821.61      151525.85    
     19600   275.75232      6488905.3      6724.9433      48.731617      2.3577398      150795.89      151448.53    
     19700   283.12708      6488620.3      6724.9433      48.731617      2.3577398      150786.14      151456.23    
     19800   302.60109      6490698.9      6724.9433      48.731617      2.3577398      150828.48      151544.66    
     19900   318.7193       6492694.9      6724.9433      48.731617      2.3577398      150871.38      151625.71    
     20000   306.64723      6493715.3      6724.9433      48.731617      2.3577398      150900.3       151626.06    
     20100   313.87485      6491379.7      6724.9433      48.731617      2.3577398      150839.79      151582.66    
     20200   294.89707      6490264.5      6724.9433      48.731617      2.3577398      150821.37      151519.32    
     20300   276.16691      6490276.4      6724.9433      48.731617      2.3577398      150828.39      151482.01    
     20400   287.56832      6490390.9      6724.9433      48.731617      2.3577398      150827.5       151508.11    
     20500   312.11626      6490838        6724.9433      48.731617      2.3577398      150828.28      151566.99    
     20600   299.18619      6492734.5      6724.9433      48.731617      2.3577398      150878.9       151587       
     20700   313.5946       6490598        6724.9433      48.731617      2.3577398      150822.95      151565.16    
     20800   285.25246      6492285.7      6724.9433      48.731617      2.3577398      150874.66      151549.78    
     20900   302.89367      6490786.3      6724.9433      48.731617      2.3577398      150831.45      151548.33    
     21000   297.55136      6490903.9      6724.9433      48.731617      2.3577398      150835.26      151539.49    
     21100   305.75232      6490870.7      6724.9433      48.731617      2.3577398      150831.92      151555.57    
     21200   304.67732      6490929.3      6724.9433      48.731617      2.3577398      150834.46      151555.55    
     21300   292.35018      6490874.7      6724.9433      48.731617      2.3577398      150837         151528.92    
     21400   290.87328      6490441.8      6724.9433      48.731617      2.3577398      150825.67      151514.1     
     21500   299.48897      6490855.4      6724.9433      48.731617      2.3577398      150832.96      151541.78    
     21600   308.87701      6492091.3      6724.9433      48.731617      2.3577398      150859.56      151590.6     
     21700   317.72427      6491858.8      6724.9433      48.731617      2.3577398      150851.38      151603.36    
     21800   310.47287      6491201.9      6724.9433      48.731617      2.3577398      150838.04      151572.85    
     21900   297.05864      6489939.8      6724.9433      48.731617      2.3577398      150811.81      151514.88    
     22000   291.86061      6488821.8      6724.9433      48.731617      2.3577398      150788.24      151479       
     22100   286.60533      6489974.3      6724.9433      48.731617      2.3577398      150818.1       151496.42    
     22200   295.89695      6492223.7      6724.9433      48.731617      2.3577398      150868.68      151569       
     22300   321.29646      6492962.2      6724.9433      48.731617      2.3577398      150876.82      151637.25    
     22400   305.88799      6493538.2      6724.9433      48.731617      2.3577398      150895.99      151619.95    
     22500   305.98228      6490566.1      6724.9433      48.731617      2.3577398      150824.52      151548.71    
     22600   278.6026       6489880.2      6724.9433      48.731617      2.3577398      150818.28      151477.67    
     22700   288.71581      6488371.8      6724.9433      48.731617      2.3577398      150778.02      151461.35    
     22800   297.0301       6490055.1      6724.9433      48.731617      2.3577398      150814.38      151517.38    
     22900   310.09184      6492745.1      6724.9433      48.731617      2.3577398      150875.2       151609.11    
     23000   332.04163      6492577.4      6724.9433      48.731617      2.3577398      150862.82      151648.68    
     23100   296.5445       6492799.6      6724.9433      48.731617      2.3577398      150882.08      151583.93    
     23200   282.43503      6490950.6      6724.9433      48.731617      2.3577398      150842.06      151510.52    
     23300   284.34006      6489410.1      6724.9433      48.731617      2.3577398      150804.24      151477.21    
     23400   295.38699      6489296.6      6724.9433      48.731617      2.3577398      150797.11      151496.23    
     23500   297.15914      6491903.7      6724.9433      48.731617      2.3577398      150860.54      151563.85    
     23600   316.11159      6492651.1      6724.9433      48.731617      2.3577398      150870.91      151619.08    
     23700   308.73133      6492332.4      6724.9433      48.731617      2.3577398      150866.06      151596.75    
     23800   290.52748      6490944        6724.9433      48.731617      2.3577398      150839.91      151527.52    
     23900   288.95205      6489971.6      6724.9433      48.731617      2.3577398      150816.71      151500.59    
     24000   302.83312      6489829.8      6724.9433      48.731617      2.3577398      150807.64      151524.38    
     24100   306.79189      6491021.8      6724.9433      48.731617      2.3577398      150834.95      151561.05    
     24200   306.06979      6492176.1      6724.9433      48.731617      2.3577398      150863.12      151587.51    
     24300   326.09793      6490004.4      6724.9433      48.731617      2.3577398      150802.77      151574.57    
     24400   280.77799      6491713.2      6724.9433      48.731617      2.3577398      150861.13      151525.66    
     24500   289.32468      6490031.1      6724.9433      48.731617      2.3577398      150818.19      151502.95    
     24600   291.67075      6490983.5      6724.9433      48.731617      2.3577398      150839.59      151529.91    
     24700   312.68655      6491829.8      6724.9433      48.731617      2.3577398      150851.9       151591.95    
     24800   318.48521      6492412.6      6724.9433      48.731617      2.3577398      150863.57      151617.35    
     24900   309.32811      6491228.8      6724.9433      48.731617      2.3577398      150839.45      151571.56    
     25000   295.23333      6489380.9      6724.9433      48.731617      2.3577398      150800.45      151499.2     
     25100   281.83597      6489131        6724.9433      48.731617      2.3577398      150798.53      151465.57    
     25200   288.31856      6490109.1      6724.9433      48.731617      2.3577398      150820.41      151502.79    
     25300   304.60584      6492329.6      6724.9433      48.731617      2.3577398      150867.53      151588.46    
     25400   325.78333      6493477.7      6724.9433      48.731617      2.3577398      150887.75      151658.8     
     25500   322.49633      6492600.2      6724.9433      48.731617      2.3577398      150867.33      151630.6     
     25600   302.99499      6489894.3      6724.9433      48.731617      2.3577398      150808.86      151525.98    
     25700   272.83649      6488885.5      6724.9433      48.731617      2.3577398      150796.38      151442.12    
     25800   274.76563      6488736.8      6724.9433      48.731617      2.3577398      150792.1       151442.4     
     25900   286.87676      6491326.4      6724.9433      48.731617      2.3577398      150849.69      151528.66    
     26000   311.55294      6494181.1      6724.9433      48.731617      2.3577398      150909.93      151647.31    
     26100   328.13456      6494588.4      6724.9433      48.731617      2.3577398      150912.14      151688.76    
     26200   309.41667      6492581.4      6724.9433      48.731617      2.3577398      150871.62      151603.94    
     26300   283.7879       6489490.4      6724.9433      48.731617      2.3577398      150806.94      151478.6     
     26400   277.36748      6487548.5      6724.9433      48.731617      2.3577398      150761.74      151418.2     
     26500   272.77681      6489542.5      6724.9433      48.731617      2.3577398      150812.05      151457.65    
     26600   300.40707      6491967.8      6724.9433      48.731617      2.3577398      150860.78      151571.77    
     26700   305.6129       6495773.7      6724.9433      48.731617      2.3577398      150951.32      151674.64    
     26800   316.42584      6494612.9      6724.9433      48.731617      2.3577398      150918.82      151667.72    
     26900   292.58464      6492403.7      6724.9433      48.731617      2.3577398      150873.38      151565.86    
     27000   283.49637      6488735.6      6724.9433      48.731617      2.3577398      150788.38      151459.35    
     27100   272.67894      6488427.8      6724.9433      48.731617      2.3577398      150785.72      151431.09    
     27200   290.92627      6489687.6      6724.9433      48.731617      2.3577398      150809.66      151498.21    
     27300   301.98809      6493013.4      6724.9433      48.731617      2.3577398      150885.82      151600.55    
     27400   320.31856      6493645.7      6724.9433      48.731617      2.3577398      150892.7       151650.81    
     27500   310.67946      6492970.3      6724.9433      48.731617      2.3577398      150880.21      151615.51    
     27600   298.70735      6490883.1      6724.9433      48.731617      2.3577398      150835.36      151542.33    
     27700   273.05606      6490395        6724.9433      48.731617      2.3577398      150833.39      151479.65    
     27800   278.60248      6489945        6724.9433      48.731617      2.3577398      150819.45      151478.84    
     27900   297.55316      6490662.3      6724.9433      48.731617      2.3577398      150829.93      151534.17    
     28000   310.24145      6491691.1      6724.9433      48.731617      2.3577398      150849.58      151583.84    
     28100   292.01387      6493453.2      6724.9433      48.731617      2.3577398      150900.33      151591.46    
     28200   308.26563      6491370.7      6724.9433      48.731617      2.3577398      150843.46      151573.05    
     28300   303.75497      6490967.8      6724.9433      48.731617      2.3577398      150835.38      151554.3     
     28400   314.188        6489714.7      6724.9433      48.731617      2.3577398      150801.21      151544.82    
     28500   296.09317      6490917.7      6724.9433      48.731617      2.3577398      150836.78      151537.56    
     28600   299.64332      6490133.4      6724.9433      48.731617      2.3577398      150816.52      151525.71    
     28700   298.80062      6490040.8      6724.9433      48.731617      2.3577398      150813.81      151521       
     28800   286.84971      6491462.5      6724.9433      48.731617      2.3577398      150853.21      151532.11    
     28900   299.68212      6491753.5      6724.9433      48.731617      2.3577398      150854.77      151564.04    
     29000   320.11791      6491722.3      6724.9433      48.731617      2.3577398      150846.56      151604.2     
     29100   303.83048      6493117.9      6724.9433      48.731617      2.3577398      150887.08      151606.17    
     29200   308.61423      6490688.7      6724.9433      48.731617      2.3577398      150826.26      151556.68    
     29300   296.53737      6489117.7      6724.9433      48.731617      2.3577398      150792.34      151494.17    
     29400   282.87757      6489103.9      6724.9433      48.731617      2.3577398      150797.87      151467.37    
     29500   287.33074      6490134.3      6724.9433      48.731617      2.3577398      150820.97      151501.02    
     29600   302.53447      6492491        6724.9433      48.731617      2.3577398      150871.92      151587.94    
     29700   329.42769      6493110.7      6724.9433      48.731617      2.3577398      150876.52      151656.19    
     29800   307.70366      6493459.2      6724.9433      48.731617      2.3577398      150893.75      151622.01    
     29900   282.8486       6491795.2      6724.9433      48.731617      2.3577398      150864.03      151533.47    
     30000   296.26632      6487983.7      6724.9433      48.731617      2.3577398      150765.37      151466.57    
     30100   284.41365      6488458.5      6724.9433      48.731617      2.3577398      150781.15      151454.29    
     30200   300.47012      6489637        6724.9433      48.731617      2.3577398      150803.6       151514.74    
     30300   311.07153      6492964.3      6724.9433      48.731617      2.3577398      150879.84      151616.08    
     30400   327.27751      6493798.3      6724.9433      48.731617      2.3577398      150894.1       151668.68    
     30500   307.82513      6492727.7      6724.9433      48.731617      2.3577398      150875.59      151604.14    
     30600   288.79125      6490005.6      6724.9433      48.731617      2.3577398      150817.39      151500.89    
     30700   278.53639      6489067.9      6724.9433      48.731617      2.3577398      150798.66      151457.89    
     30800   295.66513      6488718.8      6724.9433      48.731617      2.3577398      150782.93      151482.7     
     30900   312.21571      6490506.2      6724.9433      48.731617      2.3577398      150819.63      151558.57    
     31000   318.0513       6492884.1      6724.9433      48.731617      2.3577398      150875.53      151628.28    
     31100   307.087        6493559.2      6724.9433      48.731617      2.3577398      150896.91      151623.71    
     31200   293.00089      6491976.6      6724.9433      48.731617      2.3577398      150862.78      151556.25    
     31300   284.79599      6489793.5      6724.9433      48.731617      2.3577398      150814.84      151488.89    
     31400   287.51417      6489402.1      6724.9433      48.731617      2.3577398      150803.88      151484.36    
     31500   295.65071      6490833.9      6724.9433      48.731617      2.3577398      150835.36      151535.09    
     31600   300.3689       6492749.6      6724.9433      48.731617      2.3577398      150878.86      151589.77    
     31700   307.33664      6492539.6      6724.9433      48.731617      2.3577398      150871.44      151598.84    
     31800   302.5889       6491305.7      6724.9433      48.731617      2.3577398      150843.29      151559.44    
     31900   282.4823       6491025.7      6724.9433      48.731617      2.3577398      150844.39      151512.95    
     32000   296.23632      6489865.3      6724.9433      48.731617      2.3577398      150810.17      151511.29    
     32100   307.14496      6490659.8      6724.9433      48.731617      2.3577398      150825.82      151552.76    
     32200   308.20018      6491970.5      6724.9433      48.731617      2.3577398      150857.84      151587.28    
     32300   297.60807      6492565.7      6724.9433      48.731617      2.3577398      150876.89      151581.25    
     32400   302.99788      6490585        6724.9433      48.731617      2.3577398      150826.36      151543.49    
     32500   298.06334      6489334        6724.9433      48.731617      2.3577398      150797.42      151502.86    
     32600   278.33012      6490670.2      6724.9433      48.731617      2.3577398      150837.55      151496.3     
     32700   294.3279       6491697.4      6724.9433      48.731617      2.3577398      150856.46      151553.07    
     32800   317.41998      6492728.7      6724.9433      48.731617      2.3577398      150872.28      151623.54    
     32900   309.4908       6493096.4      6724.9433      48.731617      2.3577398      150884.78      151617.27    
     33000   295.76002      6491173.9      6724.9433      48.731617      2.3577398      150843.24      151543.23    
     33100   289.73808      6489093.6      6724.9433      48.731617      2.3577398      150794.72      151480.46    
     33200   282.61134      6489298.3      6724.9433      48.731617      2.3577398      150802.12      151471       
     33300   302.45925      6489743.9      6724.9433      48.731617      2.3577398      150805.86      151521.71    
     33400   295.02833      6493769        6724.9433      48.731617      2.3577398      150906.1       151604.37    
     33500   318.75736      6494043.7      6724.9433      48.731617      2.3577398      150903.59      151658.01    
     33600   298.51146      6493656.2      6724.9433      48.731617      2.3577398      150902.12      151608.63    
     33700   291.8667       6489805.8      6724.9433      48.731617      2.3577398      150812.04      151502.82    
     33800   279.90774      6488532.2      6724.9433      48.731617      2.3577398      150784.88      151447.35    
     33900   294.85859      6488248.2      6724.9433      48.731617      2.3577398      150772.84      151470.7     
     34000   299.82441      6491432.6      6724.9433      48.731617      2.3577398      150848.33      151557.94    
     34100   314.58054      6493719.5      6724.9433      48.731617      2.3577398      150898.07      151642.61    
     34200   315.35414      6493964.2      6724.9433      48.731617      2.3577398      150903.34      151649.71    
     34300   303.5977       6491747        6724.9433      48.731617      2.3577398      150853.22      151571.77    
     34400   283.22923      6489610.9      6724.9433      48.731617      2.3577398      150809.82      151480.15    
     34500   297.61477      6487336.4      6724.9433      48.731617      2.3577398      150749.64      151454.02    
     34600   294.38067      6489496.1      6724.9433      48.731617      2.3577398      150802.52      151499.25    
     34700   309.37024      6491625.5      6724.9433      48.731617      2.3577398      150848.01      151580.22    
     34800   330.7133       6492366.6      6724.9433      48.731617      2.3577398      150857.24      151639.96    
     34900   313.0966       6492840.9      6724.9433      48.731617      2.3577398      150876.26      151617.29    
     35000   288.05657      6491688        6724.9433      48.731617      2.3577398      150857.72      151539.48    
     35100   278.26029      6490494        6724.9433      48.731617      2.3577398      150833.15      151491.73    
     35200   301.95367      6488935.5      6724.9433      48.731617      2.3577398      150786.35      151501       
     35300   297.67359      6490679.2      6724.9433      48.731617      2.3577398      150830.56      151535.08    
     35400   311.99257      6490895.1      6724.9433      48.731617      2.3577398      150829.03      151567.45    
     35500   307.38294      6492028.4      6724.9433      48.731617      2.3577398      150859.47      151586.97    
     35600   315.58569      6490736        6724.9433      48.731617      2.3577398      150825.25      151572.17    
     35700   293.75981      6491288.7      6724.9433      48.731617      2.3577398      150846.32      151541.58    
     35800   291.18031      6491420.5      6724.9433      48.731617      2.3577398      150850.71      151539.87    
     35900   311.39647      6490376.9      6724.9433      48.731617      2.3577398      150817.08      151554.08    
     36000   305.29289      6490352.1      6724.9433      48.731617      2.3577398      150819.41      151541.97    
     36100   298.75805      6490004.3      6724.9433      48.731617      2.3577398      150813.59      151520.68    
     36200   295.53753      6490322.8      6724.9433      48.731617      2.3577398      150821.72      151521.18    
     36300   299.26614      6491634.8      6724.9433      48.731617      2.3577398      150852.82      151561.11    
     36400   301.98561      6492603.4      6724.9433      48.731617      2.3577398      150874.65      151589.38    
     36500   299.11755      6493229.1      6724.9433      48.731617      2.3577398      150891.64      151599.58    
     36600   318.23308      6490476.3      6724.9433      48.731617      2.3577398      150816.74      151569.93    
     36700   296.19661      6489666.6      6724.9433      48.731617      2.3577398      150805.98      151507.01    
     36800   278.40748      6489568.5      6724.9433      48.731617      2.3577398      150810.96      151469.89    
     36900   283.52065      6490367.5      6724.9433      48.731617      2.3577398      150829.05      151500.08    
     37000   300.51964      6492086.5      6724.9433      48.731617      2.3577398      150863.48      151574.73    
     37100   327.34612      6492544.3      6724.9433      48.731617      2.3577398      150864.31      151639.06    
     37200   315.92177      6493438.2      6724.9433      48.731617      2.3577398      150890.04      151637.76    
     37300   300.31102      6491462.7      6724.9433      48.731617      2.3577398      150847.99      151558.76    
     37400   275.4599       6489479.4      6724.9433      48.731617      2.3577398      150809.77      151461.72    
     37500   274.38077      6488548.8      6724.9433      48.731617      2.3577398      150787.43      151436.82    
     37600   289.59581      6490238.9      6724.9433      48.731617      2.3577398      150822.73      151508.14    
     37700   316.77858      6492381.5      6724.9433      48.731617      2.3577398      150863.88      151613.62    
     37800   312.61482      6494916.7      6724.9433      48.731617      2.3577398      150927.53      151667.41    
     37900   313.84563      6493421.6      6724.9433      48.731617      2.3577398      150891.13      151633.93    
     38000   304.79699      6489916.5      6724.9433      48.731617      2.3577398      150808.83      151530.21    
     38100   274.71424      6488399.1      6724.9433      48.731617      2.3577398      150783.09      151433.27    
     38200   268.84653      6489052.7      6724.9433      48.731617      2.3577398      150801.02      151437.32    
     38300   292.35607      6491411.7      6724.9433      48.731617      2.3577398      150849.86      151541.8     
     38400   327.30125      6493218.8      6724.9433      48.731617      2.3577398      150880.72      151655.36    
     38500   320.72299      6493878        6724.9433      48.731617      2.3577398      150898.86      151657.93    
     38600   300.79378      6492224.1      6724.9433      48.731617      2.3577398      150866.77      151578.68    
     38700   302.07084      6488342.9      6724.9433      48.731617      2.3577398      150772.46      151487.39    
     38800   278.36126      6488613.6      6724.9433      48.731617      2.3577398      150787.73      151446.55    
     38900   270.99025      6491049.6      6724.9433      48.731617      2.3577398      150849.51      151490.88    
     39000   308.19302      6492112.6      6724.9433      48.731617      2.3577398      150860.57      151589.99    
     39100   316.23823      6493754.7      6724.9433      48.731617      2.3577398      150897.37      151645.83    
     39200   315.91964      6491871.7      6724.9433      48.731617      2.3577398      150851.69      151599.4     
     39300   286.56743      6490840.3      6724.9433      48.731617      2.3577398      150837.75      151515.98    
     39400   279.1311       6490157.7      6724.9433      48.731617      2.3577398      150824.76      151485.39    
     39500   302.89445      6489293.4      6724.9433      48.731617      2.3577398      150794.29      151511.17    
     39600   303.22854      6491779        6724.9433      48.731617      2.3577398      150854.57      151572.24    
     39700   310.19553      6492617.8      6724.9433      48.731617      2.3577398      150871.86      151606.02    
     39800   308.27485      6491462.6      6724.9433      48.731617      2.3577398      150845.14      151574.75    
     39900   294.59791      6490408.3      6724.9433      48.731617      2.3577398      150825.4       151522.64    
     40000   295.6196       6489393.8      6724.9433      48.731617      2.3577398      150800.66      151500.32    
     40100   302.38718      6490073.6      6724.9433      48.731617      2.3577398      150813.71      151529.39    
     40200   310.38371      6491242.9      6724.9433      48.731617      2.3577398      150839.1       151573.7     
     40300   310.64973      6492537.4      6724.9433      48.731617      2.3577398      150871.14      151606.37    
     40400   310.8065       6491590.3      6724.9433      48.731617      2.3577398      150847.16      151582.76    
     40500   287.7074       6490671.2      6724.9433      48.731617      2.3577398      150833.44      151514.37    
     40600   288.11442      6489299.4      6724.9433      48.731617      2.3577398      150800.69      151482.58    
     40700   298.45024      6489739.2      6724.9433      48.731617      2.3577398      150807.59      151513.95    
     40800   304.76866      6491964.2      6724.9433      48.731617      2.3577398      150858.75      151580.07    
     40900   317.41378      6492660.5      6724.9433      48.731617      2.3577398      150870.07      151621.32    
     41000   318.81422      6491937.9      6724.9433      48.731617      2.3577398      150852.61      151607.16    
     41100   298.4138       6490805.5      6724.9433      48.731617      2.3577398      150833.8       151540.07    
     41200   282.75065      6489376.9      6724.9433      48.731617      2.3577398      150804.78      151473.98    
     41300   283.92658      6489215.8      6724.9433      48.731617      2.3577398      150800.22      151472.21    
     41400   289.7341       6491661.5      6724.9433      48.731617      2.3577398      150857.41      151543.14    
     41500   313.96521      6492672.7      6724.9433      48.731617      2.3577398      150872.85      151615.93    
     41600   305.15364      6493944.2      6724.9433      48.731617      2.3577398      150907.32      151629.55    
     41700   301.83919      6492158.4      6724.9433      48.731617      2.3577398      150864.77      151579.15    
     41800   285.92202      6490657.4      6724.9433      48.731617      2.3577398      150834.55      151511.26    
     41900   287.85763      6488883.2      6724.9433      48.731617      2.3577398      150790.83      151472.12    
     42000   288.42572      6489840.4      6724.9433      48.731617      2.3577398      150813.45      151496.09    
     42100   311.33015      6491014        6724.9433      48.731617      2.3577398      150832.69      151569.54    
     42200   315.52688      6492670        6724.9433      48.731617      2.3577398      150871.45      151618.23    
     42300   307.08866      6492744.7      6724.9433      48.731617      2.3577398      150876.78      151603.59    
     42400   292.19335      6491802.6      6724.9433      48.731617      2.3577398      150859.7       151551.25    
     42500   298.28413      6489575.5      6724.9433      48.731617      2.3577398      150802.77      151508.74    
     42600   296.31053      6489226.9      6724.9433      48.731617      2.3577398      150795.59      151496.89    
     42700   289.5167       6491193        6724.9433      48.731617      2.3577398      150846.23      151531.45    
     42800   304.60644      6491935.9      6724.9433      48.731617      2.3577398      150858.2       151579.14    
     42900   307.41733      6492092.5      6724.9433      48.731617      2.3577398      150860.62      151588.21    
     43000   297.66656      6491683.6      6724.9433      48.731617      2.3577398      150855.1       151559.61    
     43100   288.13769      6491480.6      6724.9433      48.731617      2.3577398      150853.89      151535.84    
     43200   297.3359       6490831.1      6724.9433      48.731617      2.3577398      150834.39      151538.12    
     43300   297.84917      6491122.5      6724.9433      48.731617      2.3577398      150840.87      151545.81    
     43400   313.7475       6490147.5      6724.9433      48.731617      2.3577398      150812.07      151554.64    
     43500   310.45611      6490392.4      6724.9433      48.731617      2.3577398      150817.67      151552.45    
     43600   297.39488      6490712.5      6724.9433      48.731617      2.3577398      150831.21      151535.08    
     43700   291.52339      6490985.6      6724.9433      48.731617      2.3577398      150840         151529.96    
     43800   296.02301      6491766.4      6724.9433      48.731617      2.3577398      150856.4       151557.02    
     43900   310.98036      6491962.8      6724.9433      48.731617      2.3577398      150856.2       151592.21    
     44000   315.95622      6491316.9      6724.9433      48.731617      2.3577398      150837.87      151585.66    
     44100   308.71563      6489960.1      6724.9433      48.731617      2.3577398      150809.18      151539.83    
     44200   295.39722      6489348.9      6724.9433      48.731617      2.3577398      150799.08      151498.22    
     44300   296.73585      6488947.7      6724.9433      48.731617      2.3577398      150789.13      151491.44    
     44400   288.15844      6491493.6      6724.9433      48.731617      2.3577398      150853.79      151535.79    
     44500   302.0842       6493149.2      6724.9433      48.731617      2.3577398      150888.98      151603.94    
     44600   317.24833      6493226.8      6724.9433      48.731617      2.3577398      150885.11      151635.96    
     44700   325.98214      6490525        6724.9433      48.731617      2.3577398      150814.94      151586.46    
     44800   295.87249      6489463.8      6724.9433      48.731617      2.3577398      150801.16      151501.42    
     44900   282.72911      6488672.1      6724.9433      48.731617      2.3577398      150787.18      151456.33    
     45000   301.9942       6488511        6724.9433      48.731617      2.3577398      150775.77      151490.52    
     45100   305.69919      6491580.2      6724.9433      48.731617      2.3577398      150848.76      151572.28    
     45200   326.41946      6492828.9      6724.9433      48.731617      2.3577398      150871.78      151644.34    
     45300   317.77158      6493237.2      6724.9433      48.731617      2.3577398      150884.06      151636.15    
     45400   299.46038      6491246        6724.9433      48.731617      2.3577398      150842.66      151551.41    
     45500   279.80891      6489323.1      6724.9433      48.731617      2.3577398      150804.78      151467.02    
     45600   280.35928      6488589.2      6724.9433      48.731617      2.3577398      150786.73      151450.27    
     45700   290.70183      6490454.3      6724.9433      48.731617      2.3577398      150827.63      151515.66    
     45800   320.23186      6492134.8      6724.9433      48.731617      2.3577398      150856.95      151614.87    
     45900   331.88555      6492858.7      6724.9433      48.731617      2.3577398      150870.36      151655.86    
     46000   319.83926      6491820.8      6724.9433      48.731617      2.3577398      150850.01      151606.99    
     46100   303.24082      6489359        6724.9433      48.731617      2.3577398      150796.19      151513.89    
     46200   282.71374      6488637.7      6724.9433      48.731617      2.3577398      150786.83      151455.95    
     46300   284.87246      6489403.2      6724.9433      48.731617      2.3577398      150803.81      151478.04    
     46400   298.42885      6491449.7      6724.9433      48.731617      2.3577398      150848.74      151555.05    
     46500   318.34322      6492991        6724.9433      48.731617      2.3577398      150877.71      151631.15    
     46600   301.12605      6494195.3      6724.9433      48.731617      2.3577398      150914.64      151627.34    
     46700   307.68516      6490817.9      6724.9433      48.731617      2.3577398      150829.19      151557.41    
     46800   287.33046      6489714.5      6724.9433      48.731617      2.3577398      150811.02      151491.07    
     46900   286.16037      6489264.9      6724.9433      48.731617      2.3577398      150800.45      151477.72    
     47000   298.90272      6490311.8      6724.9433      48.731617      2.3577398      150820.72      151528.15    
     47100   297.88642      6492991.9      6724.9433      48.731617      2.3577398      150886.48      151591.51    
     47200   316.48676      6492315.1      6724.9433      48.731617      2.3577398      150862.56      151611.61    
     47300   308.48558      6491132.1      6724.9433      48.731617      2.3577398      150837.5       151567.62    
     47400   290.0152       6490665.6      6724.9433      48.731617      2.3577398      150833.13      151519.53    
     47500   287.53625      6490251.5      6724.9433      48.731617      2.3577398      150823.99      151504.52    
     47600   296.6884       6490541.2      6724.9433      48.731617      2.3577398      150827.52      151529.71    
     47700   304.39052      6491756.5      6724.9433      48.731617      2.3577398      150854.12      151574.54    
     47800   294.76054      6493158.4      6724.9433      48.731617      2.3577398      150891.3       151588.93    
     47900   316.51862      6490175.4      6724.9433      48.731617      2.3577398      150810.45      151559.58    
     48000   298.00627      6489991.2      6724.9433      48.731617      2.3577398      150812.6       151517.91    
     48100   302.81841      6489296.6      6724.9433      48.731617      2.3577398      150794.03      151510.72    
     48200   297.29348      6491209.9      6724.9433      48.731617      2.3577398      150843.61      151547.23    
     48300   301.43724      6492671.7      6724.9433      48.731617      2.3577398      150877.53      151590.96    
     48400   315.08199      6491789.2      6724.9433      48.731617      2.3577398      150850.36      151596.08    
     48500   314.81635      6490074.2      6724.9433      48.731617      2.3577398      150808.65      151553.75    
     48600   291.71018      6489820.9      6724.9433      48.731617      2.3577398      150812.12      151502.53    
     48700   280.94488      6490053.7      6724.9433      48.731617      2.3577398      150822.24      151487.17    
     48800   293.88173      6490908.5      6724.9433      48.731617      2.3577398      150838.08      151533.63    
     48900   316.61289      6491845.4      6724.9433      48.731617      2.3577398      150850.89      151600.24    
     49000   318.21518      6492747.1      6724.9433      48.731617      2.3577398      150872.42      151625.56    
     49100   302.51601      6492195.6      6724.9433      48.731617      2.3577398      150865.69      151581.67    
     49200   288.49507      6490367.9      6724.9433      48.731617      2.3577398      150826.4       151509.2     
     49300   280.11595      6489324.4      6724.9433      48.731617      2.3577398      150803.78      151466.74    
     49400   291.94405      6489438.8      6724.9433      48.731617      2.3577398      150801.55      151492.52    
     49500   318.53761      6490669.9      6724.9433      48.731617      2.3577398      150821.69      151575.59    
     49600   319.42249      6493137.2      6724.9433      48.731617      2.3577398      150881.48      151637.48    
     49700   301.90549      6493780.3      6724.9433      48.731617      2.3577398      150904.55      151619.09    
     49800   287.74238      6491829.1      6724.9433      48.731617      2.3577398      150861.12      151542.14    
     49900   288.58612      6489300.8      6724.9433      48.731617      2.3577398      150800.12      151483.13    
     50000   292.09037      6488546.4      6724.9433      48.731617      2.3577398      150780.9       151472.21    
     50100   291.42368      6490716.6      6724.9433      48.731617      2.3577398      150833.2       151522.93    
     50200   309.06321      6492574.4      6724.9433      48.731617      2.3577398      150871.14      151602.62    
     50300   327.52171      6492172.9      6724.9433      48.731617      2.3577398      150855.05      151630.21    
     50400   300.18973      6492381.9      6724.9433      48.731617      2.3577398      150870.98      151581.46    
     50500   289.90131      6490596.3      6724.9433      48.731617      2.3577398      150831.81      151517.94    
     50600   287.27965      6489838.5      6724.9433      48.731617      2.3577398      150813.94      151493.86    
     50700   292.49925      6490154.6      6724.9433      48.731617      2.3577398      150819.78      151512.06    
     50800   298.79735      6491312.3      6724.9433      48.731617      2.3577398      150844.82      151552.01    
     50900   306.53359      6492315        6724.9433      48.731617      2.3577398      150866.22      151591.71    
     51000   306.82868      6492139.7      6724.9433      48.731617      2.3577398      150862.02      151588.21    
     51100   289.04581      6491789.7      6724.9433      48.731617      2.3577398      150860.4       151544.5     
     51200   282.5341       6491416        6724.9433      48.731617      2.3577398      150853.2       151521.89    
     51300   297.95407      6490741.7      6724.9433      48.731617      2.3577398      150831.13      151536.31    
     51400   306.06922      6490988.4      6724.9433      48.731617      2.3577398      150834.86      151559.25    
     51500   293.45385      6491969.1      6724.9433      48.731617      2.3577398      150863.55      151558.09    
     51600   285.69759      6492042.1      6724.9433      48.731617      2.3577398      150868.08      151544.26    
     51700   291.50889      6491092.5      6724.9433      48.731617      2.3577398      150842.85      151532.79    
     51800   288.53928      6491371.9      6724.9433      48.731617      2.3577398      150850.95      151533.86    
     51900   302.00667      6491490.5      6724.9433      48.731617      2.3577398      150848.94      151563.72    
     52000   306.36102      6492371.1      6724.9433      48.731617      2.3577398      150867.92      151593       
     52100   313.44677      6491079.5      6724.9433      48.731617      2.3577398      150834.19      151576.04    
     52200   297.47121      6490214        6724.9433      48.731617      2.3577398      150818.43      151522.48    
     52300   285.57639      6489965.1      6724.9433      48.731617      2.3577398      150817.4       151493.3     
     52400   291.98947      6490113.4      6724.9433      48.731617      2.3577398      150818.71      151509.78    
     52500   295.00879      6491829.2      6724.9433      48.731617      2.3577398      150858.76      151556.98    
     52600   308.33182      6493186.9      6724.9433      48.731617      2.3577398      150886.45      151616.2     
     52700   321.06422      6492498.3      6724.9433      48.731617      2.3577398      150864.95      151624.83    
     52800   298.28815      6491442.1      6724.9433      48.731617      2.3577398      150848.3       151554.27    
     52900   286.05506      6489122        6724.9433      48.731617      2.3577398      150796.71      151473.74    
     53000   277.59114      6489300.5      6724.9433      48.731617      2.3577398      150804.45      151461.44    
     53100   279.7296       6491778        6724.9433      48.731617      2.3577398      150863.65      151525.71    
     53200   302.16416      6493106.1      6724.9433      48.731617      2.3577398      150888.23      151603.38    
     53300   317.84152      6493649.4      6724.9433      48.731617      2.3577398      150894.15      151646.41    
     53400   316.76115      6492483.1      6724.9433      48.731617      2.3577398      150866.14      151615.84    
     53500   294.55113      6490215        6724.9433      48.731617      2.3577398      150819.53      151516.66    
     53600   279.06595      6488580.9      6724.9433      48.731617      2.3577398      150787.2       151447.68    
     53700   282.43104      6489113.7      6724.9433      48.731617      2.3577398      150797.93      151466.38    
     53800   305.88508      6490951.7      6724.9433      48.731617      2.3577398      150833.58      151557.54    
     53900   308.06252      6494076        6724.9433      48.731617      2.3577398      150908.34      151637.45    
     54000   315.89065      6493553.6      6724.9433      48.731617      2.3577398      150892.96      151640.59    
     54100   302.71969      6491899.2      6724.9433      48.731617      2.3577398      150858.64      151575.1     
     54200   290.22426      6489190.5      6724.9433      48.731617      2.3577398      150797.06      151483.96    
     54300   286.25569      6488189.9      6724.9433      48.731617      2.3577398      150774.21      151451.71    
     54400   284.82129      6490478.8      6724.9433      48.731617      2.3577398      150828.95      151503.05    
     54500   315.32793      6491774.1      6724.9433      48.731617      2.3577398      150849.95      151596.25    
     54600   311.56708      6493768.9      6724.9433      48.731617      2.3577398      150900.73      151638.14    
     54700   305.01253      6492878        6724.9433      48.731617      2.3577398      150881.14      151603.04    
     54800   297.39493      6490635.2      6724.9433      48.731617      2.3577398      150830.16      151534.03    
     54900   284.56613      6489422.9      6724.9433      48.731617      2.3577398      150804.65      151478.15    
     55000   281.10066      6490020.1      6724.9433      48.731617      2.3577398      150820.76      151486.05    
     55100   296.11408      6491409.2      6724.9433      48.731617      2.3577398      150848.88      151549.72    
     55200   309.061        6492739.9      6724.9433      48.731617      2.3577398      150876.27      151607.74    
     55300   320.51496      6491683.1      6724.9433      48.731617      2.3577398      150845.52      151604.1     
     55400   304.77648      6491043.6      6724.9433      48.731617      2.3577398      150835.94      151557.27    
     55500   301.44227      6489456.3      6724.9433      48.731617      2.3577398      150799.42      151512.86    
     55600   289.58817      6489996.1      6724.9433      48.731617      2.3577398      150816.91      151502.29    
     55700   289.70185      6491349.6      6724.9433      48.731617      2.3577398      150849.49      151535.14    
     55800   313.6324       6491366.1      6724.9433      48.731617      2.3577398      150840.36      151582.66    
     55900   318.307        6491405        6724.9433      48.731617      2.3577398      150839.44      151592.8     
     56000   301.50262      6491092.5      6724.9433      48.731617      2.3577398      150839.15      151552.74    
     56100   292.08521      6490424.6      6724.9433      48.731617      2.3577398      150826.61      151517.9     
     56200   288.61562      6490684.8      6724.9433      48.731617      2.3577398      150834.04      151517.12    
     56300   304.73661      6490588.4      6724.9433      48.731617      2.3577398      150825.69      151546.93    
     56400   313.31941      6491290.1      6724.9433      48.731617      2.3577398      150839.5       151581.05    
     56500   311.94418      6491816.6      6724.9433      48.731617      2.3577398      150852.3       151590.6     
     56600   299.74259      6491191.8      6724.9433      48.731617      2.3577398      150842.57      151551.99    
     56700   289.33354      6490217.3      6724.9433      48.731617      2.3577398      150822.31      151507.09    
     56800   291.82756      6489904.9      6724.9433      48.731617      2.3577398      150813.73      151504.41    
     56900   307.10137      6490376.9      6724.9433      48.731617      2.3577398      150818.95      151545.79    
     57000   315.08646      6491661.3      6724.9433      48.731617      2.3577398      150847.29      151593.02    
     57100   314.21136      6492141.5      6724.9433      48.731617      2.3577398      150859.29      151602.96    
     57200   297.19962      6491960.4      6724.9433      48.731617      2.3577398      150861.51      151564.91    
     57300   300.83938      6489328.5      6724.9433      48.731617      2.3577398      150796.18      151508.2     
     57400   292.58075      6489071        6724.9433      48.731617      2.3577398      150793.82      151486.29    
     57500   296.94801      6490288.2      6724.9433      48.731617      2.3577398      150821.89      151524.7     
     57600   313.41323      6491500.6      6724.9433      48.731617      2.3577398      150843.63      151585.4     
     57700   318.43871      6492244.1      6724.9433      48.731617      2.3577398      150861.13      151614.8     
     57800   306.04849      6492088.8      6724.9433      48.731617      2.3577398      150861.08      151585.42    
     57900   289.98237      6491019.2      6724.9433      48.731617      2.3577398      150842.54      151528.86    
     58000   287.86473      6489586.4      6724.9433      48.731617      2.3577398      150807.52      151488.82    
     58100   286.08629      6490167.9      6724.9433      48.731617      2.3577398      150822.05      151499.15    
     58200   309.79727      6490654.2      6724.9433      48.731617      2.3577398      150824.98      151558.2     
     58300   316.59819      6492140.5      6724.9433      48.731617      2.3577398      150859.05      151608.36    
     58400   300.41519      6493002.8      6724.9433      48.731617      2.3577398      150885.8       151596.81    
     58500   298.09087      6491251.6      6724.9433      48.731617      2.3577398      150843.47      151548.98    
     58600   290.73251      6490200.8      6724.9433      48.731617      2.3577398      150821.3       151509.4     
     58700   300.42883      6489218        6724.9433      48.731617      2.3577398      150793.65      151504.69    
     58800   294.24105      6491070.9      6724.9433      48.731617      2.3577398      150841.53      151537.93    
     58900   303.05258      6492244.7      6724.9433      48.731617      2.3577398      150865.73      151582.98    
     59000   323.19304      6490996.7      6724.9433      48.731617      2.3577398      150828.44      151593.36    
     59100   293.03262      6491800.2      6724.9433      48.731617      2.3577398      150859.49      151553.03    
     59200   293.4832       6490373.5      6724.9433      48.731617      2.3577398      150824.73      151519.34    
     59300   306.0445       6489528.2      6724.9433      48.731617      2.3577398      150799.67      151524.01    
     59400   300.2297       6491144.9      6724.9433      48.731617      2.3577398      150840.27      151550.85    
     59500   299.74829      6492073.8      6724.9433      48.731617      2.3577398      150863.04      151572.47    
     59600   304.67809      6491664.1      6724.9433      48.731617      2.3577398      150851.03      151572.13    
     59700   302.07218      6490756.7      6724.9433      48.731617      2.3577398      150830.61      151545.54    
     59800   293.34264      6490140.3      6724.9433      48.731617      2.3577398      150818.7       151512.97    
     59900   300.06297      6490001.2      6724.9433      48.731617      2.3577398      150812.59      151522.77    
     60000   306.07372      6491259.8      6724.9433      48.731617      2.3577398      150840.54      151564.94    
     60100   311.7038       6491962.3      6724.9433      48.731617      2.3577398      150855.97      151593.7     
     60200   296.20367      6492762.2      6724.9433      48.731617      2.3577398      150881.28      151582.32    
     60300   304.14984      6490277.9      6724.9433      48.731617      2.3577398      150817.47      151537.32    
     60400   286.84388      6490057.2      6724.9433      48.731617      2.3577398      150819.44      151498.33    
     60500   289.44558      6489857.8      6724.9433      48.731617      2.3577398      150813.76      151498.81    
     60600   301.97041      6490981.7      6724.9433      48.731617      2.3577398      150836.45      151551.14    
     60700   308.84762      6492881        6724.9433      48.731617      2.3577398      150880.25      151611.21    
     60800   309.33104      6493158.7      6724.9433      48.731617      2.3577398      150885.33      151617.44    
     60900   299.49952      6491571.4      6724.9433      48.731617      2.3577398      150850.96      151559.81    
     61000   282.5051       6490006.3      6724.9433      48.731617      2.3577398      150819.31      151487.93    
     61100   285.50377      6489027.3      6724.9433      48.731617      2.3577398      150795.32      151471.04    
     61200   295.8599       6490113.6      6724.9433      48.731617      2.3577398      150816.8       151517.03    
     61300   305.75515      6492648.3      6724.9433      48.731617      2.3577398      150874.32      151597.97    
     61400   323.47979      6493167.3      6724.9433      48.731617      2.3577398      150880.25      151645.85    
     61500   304.27981      6492988.9      6724.9433      48.731617      2.3577398      150883.59      151603.75    
     61600   295.48509      6490065.6      6724.9433      48.731617      2.3577398      150815.97      151515.31    
     61700   285.2119       6488526.7      6724.9433      48.731617      2.3577398      150783.13      151458.16    
     61800   282.52267      6489394.4      6724.9433      48.731617      2.3577398      150805.36      151474.02    
     61900   301.74414      6491353.5      6724.9433      48.731617      2.3577398      150845.17      151559.33    
     62000   314.12555      6493422.9      6724.9433      48.731617      2.3577398      150890.07      151633.53    
     62100   328.04882      6492460.2      6724.9433      48.731617      2.3577398      150862.05      151638.47    
     62200   307.06329      6491240.3      6724.9433      48.731617      2.3577398      150840.39      151567.14    
     62300   289.97522      6489136.6      6724.9433      48.731617      2.3577398      150796.34      151482.64    
     62400   275.00769      6489478.7      6724.9433      48.731617      2.3577398      150810.67      151461.55    
     62500   283.2977       6491005.6      6724.9433      48.731617      2.3577398      150844.06      151514.56    
     62600   313.67271      6491769.1      6724.9433      48.731617      2.3577398      150850.95      151593.34    
     62700   320.34683      6492761.3      6724.9433      48.731617      2.3577398      150871.42      151629.6     
     62800   300.24483      6492994.2      6724.9433      48.731617      2.3577398      150886.02      151596.63    
     62900   298.72256      6490490        6724.9433      48.731617      2.3577398      150825.17      151532.17    
     63000   292.60097      6488996.7      6724.9433      48.731617      2.3577398      150791.22      151483.74    
     63100   279.539        6490393.6      6724.9433      48.731617      2.3577398      150829.89      151491.49    
     63200   309.88465      6490343        6724.9433      48.731617      2.3577398      150817.72      151551.15    
     63300   317.04817      6491903.9      6724.9433      48.731617      2.3577398      150853.86      151604.23    
     63400   314.73902      6492054.1      6724.9433      48.731617      2.3577398      150857.12      151602.03    
     63500   299.00007      6491466        6724.9433      48.731617      2.3577398      150848.35      151556.01    
     63600   291.62212      6490287.8      6724.9433      48.731617      2.3577398      150823.23      151513.43    
     63700   288.51568      6490226.4      6724.9433      48.731617      2.3577398      150823.86      151506.71    
     63800   303.98582      6490159.6      6724.9433      48.731617      2.3577398      150815.26      151534.73    
     63900   299.7052       6492213.7      6724.9433      48.731617      2.3577398      150867.4       151576.73    
     64000   312.94073      6491780.5      6724.9433      48.731617      2.3577398      150850.7       151591.36    
     64100   301.28684      6491347.5      6724.9433      48.731617      2.3577398      150844.71      151557.78    
     64200   288.10323      6490940.6      6724.9433      48.731617      2.3577398      150839.73      151521.6     
     64300   294.80905      6490247.6      6724.9433      48.731617      2.3577398      150820.2       151517.94    
     64400   294.12856      6491436.8      6724.9433      48.731617      2.3577398      150849.86      151545.99    
     64500   298.98105      6492476.2      6724.9433      48.731617      2.3577398      150873.28      151580.9     
     64600   308.91317      6491884.9      6724.9433      48.731617      2.3577398      150855.01      151586.14    
     64700   294.37034      6491650.5      6724.9433      48.731617      2.3577398      150855.18      151551.88    
     64800   295.10313      6489855.1      6724.9433      48.731617      2.3577398      150811.38      151509.81    
     64900   281.42758      6490572.1      6724.9433      48.731617      2.3577398      150834.85      151500.92    
     65000   298.79056      6490961.6      6724.9433      48.731617      2.3577398      150837.08      151544.25    
     65100   303.09719      6492768.9      6724.9433      48.731617      2.3577398      150878.65      151596.01    
     65200   310.21089      6492545.9      6724.9433      48.731617      2.3577398      150870.89      151605.08    
[...]
    384300   295.89729      6491130.8      6724.9433      48.731617      2.3577398      150842.2       151542.52    
    384400   301.43457      6491902.8      6724.9433      48.731617      2.3577398      150858.05      151571.48    
    384500   302.9096       6491655.7      6724.9433      48.731617      2.3577398      150851.38      151568.29    
    384600   295.78308      6491314.2      6724.9433      48.731617      2.3577398      150846.8       151546.85    
    384700   297.25477      6490275.7      6724.9433      48.731617      2.3577398      150820.22      151523.75    
    384800   287.14854      6490083        6724.9433      48.731617      2.3577398      150820.8       151500.41    
    384900   278.59461      6490066.5      6724.9433      48.731617      2.3577398      150822.02      151481.39    
    385000   285.47765      6491176.7      6724.9433      48.731617      2.3577398      150846.92      151522.58    
    385100   314.78438      6490378.5      6724.9433      48.731617      2.3577398      150816.66      151561.68    
    385200   314.53823      6490782.6      6724.9433      48.731617      2.3577398      150826.08      151570.52    
    385300   301.68182      6491103.4      6724.9433      48.731617      2.3577398      150838.84      151552.85    
    385400   285.63647      6490734.2      6724.9433      48.731617      2.3577398      150835.44      151511.47    
    385500   288.10161      6490190.8      6724.9433      48.731617      2.3577398      150822.24      151504.11    
    385600   295.36839      6491875.2      6724.9433      48.731617      2.3577398      150860.1       151559.17    
    385700   305.97529      6491679.2      6724.9433      48.731617      2.3577398      150851.68      151575.85    
    385800   309.96245      6490707.2      6724.9433      48.731617      2.3577398      150826.09      151559.7     
    385900   298.85703      6490403.8      6724.9433      48.731617      2.3577398      150823.42      151530.75    
    386000   289.64958      6490431.9      6724.9433      48.731617      2.3577398      150827.99      151513.52    
    386100   298.35826      6490581.6      6724.9433      48.731617      2.3577398      150827.66      151533.8     
    386200   307.44353      6492096.6      6724.9433      48.731617      2.3577398      150861.04      151588.69    
    386300   307.4263       6492073        6724.9433      48.731617      2.3577398      150860.63      151588.23    
    386400   303.16573      6491084        6724.9433      48.731617      2.3577398      150838.38      151555.91    
    386500   292.54204      6490975.4      6724.9433      48.731617      2.3577398      150839.35      151531.72    
    386600   299.99824      6490391.9      6724.9433      48.731617      2.3577398      150822.67      151532.7     
    386700   295.72011      6491093.5      6724.9433      48.731617      2.3577398      150841.2       151541.1     
    386800   289.51981      6491907.2      6724.9433      48.731617      2.3577398      150862.95      151548.18    
    386900   298.25507      6491383.4      6724.9433      48.731617      2.3577398      150847.58      151553.48    
    387000   306.42158      6490931        6724.9433      48.731617      2.3577398      150832.86      151558.09    
    387100   292.21972      6491962.4      6724.9433      48.731617      2.3577398      150863.55      151555.17    
    387200   299.5192       6491176.5      6724.9433      48.731617      2.3577398      150842.02      151550.91    
    387300   296.49542      6491258.7      6724.9433      48.731617      2.3577398      150844.68      151546.41    
    387400   303.54574      6490446.4      6724.9433      48.731617      2.3577398      150822.69      151541.11    
    387500   294.9905       6490695.3      6724.9433      48.731617      2.3577398      150830.68      151528.85    
    387600   302.97252      6489819.9      6724.9433      48.731617      2.3577398      150807.23      151524.3     
    387700   298.06916      6491375        6724.9433      48.731617      2.3577398      150846.43      151551.89    
    387800   311.88683      6491683.2      6724.9433      48.731617      2.3577398      150848.52      151586.68    
    387900   308.24446      6491701.2      6724.9433      48.731617      2.3577398      150851.79      151581.33    
    388000   294.60221      6490764.2      6724.9433      48.731617      2.3577398      150834.13      151531.38    
    388100   284.72929      6490751.9      6724.9433      48.731617      2.3577398      150836.33      151510.22    
    388200   291.7658       6490868.9      6724.9433      48.731617      2.3577398      150837.28      151527.82    
    388300   297.86667      6491603.5      6724.9433      48.731617      2.3577398      150852.59      151557.57    
    388400   312.39834      6491269        6724.9433      48.731617      2.3577398      150839.45      151578.82    
    388500   312.25901      6491019.3      6724.9433      48.731617      2.3577398      150832.32      151571.36    
    388600   278.83704      6491189.9      6724.9433      48.731617      2.3577398      150849.64      151509.58    
    388700   296.46063      6489578.4      6724.9433      48.731617      2.3577398      150804.14      151505.8     
    388800   290.9657       6491425.3      6724.9433      48.731617      2.3577398      150850.85      151539.5     
    388900   301.19564      6491733.3      6724.9433      48.731617      2.3577398      150854.69      151567.55    
    389000   294.78941      6492332.4      6724.9433      48.731617      2.3577398      150872.16      151569.86    
    389100   303.19367      6491119.8      6724.9433      48.731617      2.3577398      150839.13      151556.72    
    389200   295.13648      6491333.9      6724.9433      48.731617      2.3577398      150847.56      151546.08    
    389300   305.40396      6490463.3      6724.9433      48.731617      2.3577398      150821.84      151544.66    
    389400   294.59421      6491399.5      6724.9433      48.731617      2.3577398      150849.74      151546.97    
    389500   305.2732       6490889.3      6724.9433      48.731617      2.3577398      150832.6       151555.11    
    389600   293.77312      6492133.7      6724.9433      48.731617      2.3577398      150867.58      151562.87    
    389700   304.98329      6491803        6724.9433      48.731617      2.3577398      150853.91      151575.74    
    389800   308.53684      6491118        6724.9433      48.731617      2.3577398      150837.12      151567.35    
    389900   297.74205      6490651.4      6724.9433      48.731617      2.3577398      150829.53      151534.21    
    390000   297.88225      6489860.6      6724.9433      48.731617      2.3577398      150810.14      151515.16    
    390100   291.95945      6491255.3      6724.9433      48.731617      2.3577398      150845.73      151536.73    
    390200   297.48519      6492952.5      6724.9433      48.731617      2.3577398      150885.45      151589.52    
    390300   307.92291      6491785.7      6724.9433      48.731617      2.3577398      150852.95      151581.73    
    390400   295.71514      6491528        6724.9433      48.731617      2.3577398      150851.58      151551.47    
    390500   305.42565      6489937        6724.9433      48.731617      2.3577398      150809.45      151532.32    
    390600   300.46222      6490375.9      6724.9433      48.731617      2.3577398      150822.45      151533.57    
    390700   297.25374      6491319.5      6724.9433      48.731617      2.3577398      150846.52      151550.05    
    390800   320.27829      6492126.3      6724.9433      48.731617      2.3577398      150856.68      151614.7     
    390900   314.68064      6493194.1      6724.9433      48.731617      2.3577398      150884.66      151629.43    
    391000   308.00127      6491718.9      6724.9433      48.731617      2.3577398      150851.23      151580.2     
    391100   299.66038      6490944.8      6724.9433      48.731617      2.3577398      150835.65      151544.87    
    391200   292.43216      6490868.5      6724.9433      48.731617      2.3577398      150836.68      151528.8     
    391300   293.88234      6490855.7      6724.9433      48.731617      2.3577398      150835.81      151531.36    
    391400   305.88271      6491495.4      6724.9433      48.731617      2.3577398      150847.49      151571.44    
    391500   310.60685      6492319        6724.9433      48.731617      2.3577398      150865.3       151600.43    
    391600   312.11545      6491317.9      6724.9433      48.731617      2.3577398      150839.87      151578.57    
    391700   304.46724      6490628.8      6724.9433      48.731617      2.3577398      150826.69      151547.29    
    391800   304.70258      6490454.2      6724.9433      48.731617      2.3577398      150821.38      151542.54    
    391900   296.48597      6491086        6724.9433      48.731617      2.3577398      150841.01      151542.72    
    392000   293.36801      6491673.4      6724.9433      48.731617      2.3577398      150855.61      151549.94    
    392100   301.35535      6492348.1      6724.9433      48.731617      2.3577398      150869.4       151582.63    
    392200   299.87375      6493351.9      6724.9433      48.731617      2.3577398      150894.44      151604.17    
    392300   307.71813      6491370.1      6724.9433      48.731617      2.3577398      150843.19      151571.49    
    392400   274.98124      6492157.5      6724.9433      48.731617      2.3577398      150875.42      151526.23    
    392500   295.80533      6490456.6      6724.9433      48.731617      2.3577398      150825.95      151526.05    
    392600   305.15555      6490757.8      6724.9433      48.731617      2.3577398      150829.34      151551.57    
    392700   298.42926      6492463.5      6724.9433      48.731617      2.3577398      150872.97      151579.28    
    392800   311.55524      6491972.1      6724.9433      48.731617      2.3577398      150856.28      151593.66    
    392900   309.12101      6491502.4      6724.9433      48.731617      2.3577398      150845.45      151577.06    
    393000   295.60888      6490799.7      6724.9433      48.731617      2.3577398      150833.85      151533.49    
    393100   299.40828      6489947.5      6724.9433      48.731617      2.3577398      150811.6       151520.23    
    393200   295.15676      6490816.8      6724.9433      48.731617      2.3577398      150834.46      151533.02    
    393300   314.60522      6491167.2      6724.9433      48.731617      2.3577398      150835.62      151580.22    
    393400   308.92258      6492068.2      6724.9433      48.731617      2.3577398      150859.88      151591.02    
    393500   302.57967      6491652.5      6724.9433      48.731617      2.3577398      150851.8       151567.94    
    393600   307.13659      6490680.3      6724.9433      48.731617      2.3577398      150826.68      151553.6     
    393700   298.0366       6491245.4      6724.9433      48.731617      2.3577398      150844.15      151549.53    
    393800   305.83769      6490592        6724.9433      48.731617      2.3577398      150825.04      151548.89    
    393900   294.84946      6491358.6      6724.9433      48.731617      2.3577398      150847.65      151545.49    
    394000   295.40125      6490854.1      6724.9433      48.731617      2.3577398      150835.35      151534.5     
    394100   300.24059      6490363.7      6724.9433      48.731617      2.3577398      150821.44      151532.04    
    394200   291.04216      6491706.5      6724.9433      48.731617      2.3577398      150857.09      151545.92    
    394300   303.34522      6492101.8      6724.9433      48.731617      2.3577398      150862.29      151580.24    
    394400   311.86913      6491978.3      6724.9433      48.731617      2.3577398      150856.34      151594.46    
    394500   308.80998      6490641.9      6724.9433      48.731617      2.3577398      150825.05      151555.93    
    394600   293.27963      6490140.1      6724.9433      48.731617      2.3577398      150818.81      151512.94    
    394700   293.94196      6490330.8      6724.9433      48.731617      2.3577398      150822.53      151518.22    
    394800   304.43368      6490905.3      6724.9433      48.731617      2.3577398      150833.09      151553.61    
    394900   308.62047      6491272.3      6724.9433      48.731617      2.3577398      150840.89      151571.32    
    395000   302.29315      6491534.5      6724.9433      48.731617      2.3577398      150850.31      151565.76    
    395100   306.82457      6490778.5      6724.9433      48.731617      2.3577398      150829.35      151555.53    
    395200   301.72003      6491032.4      6724.9433      48.731617      2.3577398      150836.98      151551.08    
    395300   297.97796      6491211.9      6724.9433      48.731617      2.3577398      150843.3       151548.54    
    395400   301.72642      6490827.9      6724.9433      48.731617      2.3577398      150832.56      151546.67    
    395500   294.75193      6490521.7      6724.9433      48.731617      2.3577398      150828.18      151525.79    
    395600   288.1298       6490257.3      6724.9433      48.731617      2.3577398      150823.78      151505.71    
    395700   292.51172      6490752.2      6724.9433      48.731617      2.3577398      150834.22      151526.53    
    395800   305.10618      6491416.4      6724.9433      48.731617      2.3577398      150845.35      151567.46    
    395900   314.91968      6490970.2      6724.9433      48.731617      2.3577398      150830.69      151576.03    
    396000   299.60753      6491390.9      6724.9433      48.731617      2.3577398      150847.05      151556.15    
    396100   291.44394      6490308.5      6724.9433      48.731617      2.3577398      150824.03      151513.81    
    396200   287.1226       6489886.4      6724.9433      48.731617      2.3577398      150815.47      151495.02    
    396300   297.56443      6491365.8      6724.9433      48.731617      2.3577398      150846.63      151550.89    
    396400   310.07276      6491834.4      6724.9433      48.731617      2.3577398      150853.59      151587.45    
    396500   305.80026      6491928.4      6724.9433      48.731617      2.3577398      150857.78      151581.53    
    396600   308.02802      6490244        6724.9433      48.731617      2.3577398      150816.29      151545.32    
    396700   289.33681      6490831.4      6724.9433      48.731617      2.3577398      150837.07      151521.86    
    396800   283.58877      6491397.8      6724.9433      48.731617      2.3577398      150852.94      151524.13    
    396900   304.06154      6491892.5      6724.9433      48.731617      2.3577398      150857.28      151576.92    
    397000   312.29664      6492077.6      6724.9433      48.731617      2.3577398      150858.13      151597.26    
    397100   308.88075      6491252.5      6724.9433      48.731617      2.3577398      150839.38      151570.43    
    397200   293.24099      6491319.2      6724.9433      48.731617      2.3577398      150847.33      151541.37    
    397300   294.66475      6491043.6      6724.9433      48.731617      2.3577398      150839.99      151537.39    
    397400   296.63682      6491147.2      6724.9433      48.731617      2.3577398      150841.57      151543.64    
    397500   301.64324      6491910.6      6724.9433      48.731617      2.3577398      150858.59      151572.51    
    397600   314.6176       6493046        6724.9433      48.731617      2.3577398      150881.89      151626.52    
    397700   304.21376      6492739.7      6724.9433      48.731617      2.3577398      150877.61      151597.61    
    397800   310.92427      6490529.8      6724.9433      48.731617      2.3577398      150821.03      151556.92    
    397900   309.37452      6489969.4      6724.9433      48.731617      2.3577398      150808.88      151541.1     
    398000   302.60116      6490433.5      6724.9433      48.731617      2.3577398      150821.59      151537.78    
    398100   306.17252      6490779.8      6724.9433      48.731617      2.3577398      150829.83      151554.47    
    398200   315.55375      6491746.3      6724.9433      48.731617      2.3577398      150849.17      151596.01    
    398300   307.94004      6492467.1      6724.9433      48.731617      2.3577398      150870.17      151598.99    
    398400   295.27517      6491411.1      6724.9433      48.731617      2.3577398      150848.87      151547.72    
    398500   287.61372      6491174.2      6724.9433      48.731617      2.3577398      150845.78      151526.49    
    398600   298.30319      6490823        6724.9433      48.731617      2.3577398      150833.63      151539.64    
    398700   300.12542      6491586.7      6724.9433      48.731617      2.3577398      150851.59      151561.91    
    398800   291.72872      6493459.9      6724.9433      48.731617      2.3577398      150900.25      151590.7     
    398900   314.27601      6492664        6724.9433      48.731617      2.3577398      150872.48      151616.29    
    399000   312.23181      6491731.8      6724.9433      48.731617      2.3577398      150849.63      151588.61    
    399100   295.37544      6491080.8      6724.9433      48.731617      2.3577398      150841.48      151540.56    
    399200   289.32361      6491005.2      6724.9433      48.731617      2.3577398      150841.34      151526.1     
    399300   293.09702      6490991.7      6724.9433      48.731617      2.3577398      150839.6       151533.29    
    399400   300.1646       6492197.2      6724.9433      48.731617      2.3577398      150866.17      151576.59    
    399500   309.1495       6492265.6      6724.9433      48.731617      2.3577398      150864.76      151596.44    
    399600   307.83587      6491252.9      6724.9433      48.731617      2.3577398      150839.84      151568.41    
    399700   292.05307      6490369.8      6724.9433      48.731617      2.3577398      150825.24      151516.46    
    399800   287.98702      6491022.3      6724.9433      48.731617      2.3577398      150842.8       151524.4     
    399900   310.18506      6490383.2      6724.9433      48.731617      2.3577398      150818.17      151552.3     
    400000   306.01033      6491626.9      6724.9433      48.731617      2.3577398      150850.53      151574.78    
    400100   302.66584      6492117.1      6724.9433      48.731617      2.3577398      150863.08      151579.42    
Loop time of 24.1722 on 64 procs for 400000 steps with 795 atoms

Performance: 357.435 ns/day, 0.067 hours/ns, 16547.925 timesteps/s
99.8% CPU use with 64 MPI tasks x 1 OpenMP threads

MPI task timing breakdown:
Section |  min time  |  avg time  |  max time  |%varavg| %total
---------------------------------------------------------------
Pair    | 1.9514     | 2.7184     | 3.5583     |  23.3 | 11.25
Neigh   | 0.043838   | 0.056275   | 0.070463   |   2.5 |  0.23
Comm    | 13.317     | 14.966     | 17.971     |  22.9 | 61.92
Output  | 0.31444    | 0.31979    | 0.36118    |   1.0 |  1.32
Modify  | 2.8785     | 5.5814     | 6.7188     |  34.0 | 23.09
Other   |            | 0.5299     |            |       |  2.19

Nlocal:        12.4219 ave          16 max           9 min
Histogram: 2 6 12 0 17 13 0 4 4 6
Nghost:        645.234 ave         680 max         611 min
Histogram: 5 3 4 8 11 13 10 5 2 3
Neighs:        834.203 ave        1125 max         617 min
Histogram: 4 5 13 10 11 8 3 3 2 5

Total # of neighbors = 53389
Ave neighs/atom = 67.155975
Neighbor list builds = 2023
Dangerous builds = 24

write_data graphene_single_layer_LJ_795C_after_temp_300K.data ### MODIFY FILE NAME ###
System init for write_data ...
Generated 0 of 0 mixed pair_coeff terms from geometric mixing rule
Total wall time: 0:00:24
