# System definition
read_data graphene_single_layer_x-45_y-45_795_C.data
Reading data file ...
  orthogonal box = (-51 -51 -51) to (96 96 51)
  1 by 1 by 1 MPI processor grid
  reading atoms ...
  795 atoms
  read_data CPU = 0.018 seconds
pair_style lj/cut 6
pair_coeff      1 1 0.066047 3.4

# Virtual force wall to keep the cylinder shape
#region myCylinder cylinder z 0. 0. 20.3 -22.079997 505.920003 units box
#fix wall all wall/region myCylinder lj93 1.0 1.0 2.5

# Minimization
timestep 0.25
thermo 100
thermo_style custom step temp press vol lx density pe etotal
dump 2 all custom 1000 graphene_single_layer_LJ_795C_after_temp_100K.lammpstrj id type x y z
min_style cg
minimize 1.0e-6 1.0e-6 100 1000
WARNING: Using 'neigh_modify every 1 delay 0 check yes' setting during minimization (../min.cpp:187)
  generated 0 of 0 mixed pair_coeff terms from geometric mixing rule
Neighbor list info ...
  update every 1 steps, delay 0 steps, check yes
  max neighbors/atom: 10000, page size: 100000
  master list distance cutoff = 6.4
  ghost atom cutoff = 6.4
  binsize = 3.2, bins = 46 46 32
  1 neighbor lists, perpetual/occasional/extra = 1 0 0
  (1) pair lj/cut, perpetual
      attributes: half, newton on
      pair build: half/bin/atomonly/newton
      stencil: half/bin/3d
      bin: standard
Per MPI rank memory allocation (min/avg/max) = 5.96 | 5.96 | 5.96 Mbytes
Step Temp Press Volume Lx Density PotEng TotEng 
       0            0    1335313.5      2204118          147  0.007193656     10699602     10699602 
     100            0     61841.43      2204118          147  0.007193656    488621.59    488621.59 
Loop time of 0.0619872 on 1 procs for 100 steps with 795 atoms

100.0% CPU use with 1 MPI tasks x no OpenMP threads

Minimization stats:
  Stopping criterion = max iterations
  Energy initial, next-to-last, final = 
      10699602.3573369   495470.853828546   488621.590421788
  Force two-norm initial, final = 694694.42 29375.63
  Force max component initial, final = 79169.705 9280.0147
  Final line search alpha, max atom move = 3.8811533e-05 0.36017159
  Iterations, force evaluations = 100 117

MPI task timing breakdown:
Section |  min time  |  avg time  |  max time  |%varavg| %total
---------------------------------------------------------------
Pair    | 0.040655   | 0.040655   | 0.040655   |   0.0 | 65.59
Neigh   | 0.016856   | 0.016856   | 0.016856   |   0.0 | 27.19
Comm    | 0.0003584  | 0.0003584  | 0.0003584  |   0.0 |  0.58
Output  | 7.97e-05   | 7.97e-05   | 7.97e-05   |   0.0 |  0.13
Modify  | 0          | 0          | 0          |   0.0 |  0.00
Other   |            | 0.004038   |            |       |  6.51

Nlocal:            795 ave         795 max         795 min
Histogram: 1 0 0 0 0 0 0 0 0 0
Nghost:              0 ave           0 max           0 min
Histogram: 1 0 0 0 0 0 0 0 0 0
Neighs:          13073 ave       13073 max       13073 min
Histogram: 1 0 0 0 0 0 0 0 0 0

Total # of neighbors = 13073
Ave neighs/atom = 16.444025
Neighbor list builds = 35
Dangerous builds = 0
#timestep 0.25
fix 1 all nvt temp 100.0 100.0 $(100.0*dt)
fix 1 all nvt temp 100.0 100.0 25
run 400000
  generated 0 of 0 mixed pair_coeff terms from geometric mixing rule
Per MPI rank memory allocation (min/avg/max) = 4.835 | 4.835 | 4.835 Mbytes
Step Temp Press Volume Lx Density PotEng TotEng 
     100            0     61841.43      2204118          147  0.007193656    488621.59    488621.59 
     200    7868.2497    29366.456      2204118          147  0.007193656     227021.7    245643.98 
     300    3647.0124    18427.672      2204118          147  0.007193656    141954.74    150586.35 
     400    2272.3954    13143.669      2204118          147  0.007193656    100732.92    106111.15 
     500    1541.2707     10097.57      2204118          147  0.007193656    77016.321    80664.144 
     600    1148.7914      8128.67      2204118          147  0.007193656     61698.97    64417.887 
     700    898.72465    6744.0581      2204118          147  0.007193656    50945.265    53072.334 
     800     727.2676    5721.5161      2204118          147  0.007193656    43017.634    44738.904 
     900    604.10921    4938.0901      2204118          147  0.007193656      36954.5    38384.284 
    1000    512.14968    4320.6254      2204118          147  0.007193656    32184.247    33396.384 
    1100    441.62622    3822.6945      2204118          147  0.007193656    28344.315     29389.54 
    1200    386.11404    3413.5977      2204118          147  0.007193656    25194.929     26108.77 
    1300    341.67613     3072.226      2204118          147  0.007193656    22571.564    23380.231 
    1400    305.63102    2783.4036      2204118          147  0.007193656    20356.019    21079.376 
    1500    275.92195    2536.1224      2204118          147  0.007193656    18462.507    19115.549 
    1600    251.14612    2322.2612      2204118          147  0.007193656    16827.872    17422.276 
    1700    230.30257    2135.6235      2204118          147  0.007193656    15403.876    15948.948 
    1800     212.6068    1971.4419      2204118          147  0.007193656    14153.506    14656.696 
    1900     197.4772    1825.9817      2204118          147  0.007193656    13047.707    13515.089 
    2000    184.47987    1696.2645      2204118          147  0.007193656    12063.329    12499.949 
    2100     173.2687    1579.8942      2204118          147  0.007193656     11181.82    11591.906 
    2200    163.55677    1474.9205      2204118          147  0.007193656     10388.05     10775.15 
    2300    155.08171    1379.7673      2204118          147  0.007193656    9669.8067    10036.848 
    2400    147.62111    1293.1803      2204118          147  0.007193656    9017.4364    9366.8206 
    2500    141.05409    1214.1127      2204118          147  0.007193656    8422.8067    8756.6483 
    2600    135.28556    1141.6753      2204118          147  0.007193656     7879.083    8199.2719 
    2700    130.23243     1075.097      2204118          147  0.007193656    7380.3275    7688.5568 
    2800    125.80339    1013.7121      2204118          147  0.007193656    6921.3471    7219.0939 
    2900    121.95286       956.95      2204118          147  0.007193656    6497.7785     6786.412 
    3000    118.64194    904.28573      2204118          147  0.007193656    6105.5372    6386.3345 
    3100    115.77105    855.27982      2204118          147  0.007193656    5741.2686    6015.2712 
    3200     113.2645     809.5692      2204118          147  0.007193656    5402.1587    5670.2289 
    3300    111.09545    766.84947      2204118          147  0.007193656    5085.9232    5348.8598 
    3400    109.23467    726.83797      2204118          147  0.007193656    4790.3406    5048.8732 
    3500    107.64121     689.2961      2204118          147  0.007193656    4513.6257    4768.3869 
    3600    106.27804    654.00645      2204118          147  0.007193656    4254.0628    4505.5977 
    3700     105.1152    620.79114      2204118          147  0.007193656    4010.3517    4259.1345 
    3800    104.12791    589.48058      2204118          147  0.007193656    3781.1308    4027.5769 
    3900    103.29296    559.93334      2204118          147  0.007193656    3565.3429    3809.8129 
    4000    102.58921     532.0214      2204118          147  0.007193656    3362.0105    3604.8149 
    4100    101.99881    505.62915      2204118          147  0.007193656    3170.2411    3411.6481 
    4200    101.50521    480.64597      2204118          147  0.007193656    2989.1221    3229.3609 
    4300     101.0946    456.99316      2204118          147  0.007193656    2818.1812    3057.4482 
    4400    100.75487     434.5786      2204118          147  0.007193656     2656.647    2895.1099 
    4500    100.47573    413.32058      2204118          147  0.007193656    2503.8533    2741.6556 
    4600    100.24573    393.15044      2204118          147  0.007193656    2359.2927    2596.5506 
    4700    100.05752      374.005      2204118          147  0.007193656    2222.4931    2459.3056 
    4800    99.905787    355.82011      2204118          147  0.007193656     2092.919    2329.3724 
    4900     99.78444    338.55192      2204118          147  0.007193656    1970.3327    2206.4989 
    5000    99.686941    322.14265      2204118          147  0.007193656    1854.2269    2090.1623 
    5100    99.610631    306.54258      2204118          147  0.007193656    1744.1947    1979.9495 
    5200    99.553289    291.71665      2204118          147  0.007193656    1640.0472    1875.6663 
    5300    99.511871    277.61614      2204118          147  0.007193656     1541.343     1776.864 
    5400    99.478049    264.20367      2204118          147  0.007193656    1447.7933    1683.2343 
    5500    99.442311    251.44898      2204118          147  0.007193656    1359.1681    1594.5245 
    5600     99.40213    239.34246      2204118          147  0.007193656    1275.5127     1510.774 
    5700    99.369784    227.83905      2204118          147  0.007193656    1196.2509    1431.4356 
    5800    99.353839    216.93432      2204118          147  0.007193656    1121.4963    1356.6433 
    5900    99.362084    206.60221      2204118          147  0.007193656    1051.0448    1286.2113 
    6000    99.434574    196.78097      2204118          147  0.007193656    984.30369    1219.6418 
    6100    99.538545     187.4184      2204118          147  0.007193656    920.97253    1156.5567 
    6200     99.53351    178.47368      2204118          147  0.007193656    860.69357    1096.2658 
    6300    99.434818     169.9562      2204118          147  0.007193656    803.64094    1038.9796 
    6400     99.40901    161.85573      2204118          147  0.007193656    749.61047    984.88805 
    6500    99.504968    154.15658      2204118          147  0.007193656    698.50708    934.01177 
    6600       99.589     146.8321      2204118          147  0.007193656    650.21727    885.92084 
    6700    99.566553    139.83532      2204118          147  0.007193656    604.21071    839.86116 
    6800    99.516658    133.16832      2204118          147  0.007193656    560.60643    796.13879 
    6900    99.548469     126.8205      2204118          147  0.007193656    519.29826    754.90592 
    7000    99.625882    120.76648      2204118          147  0.007193656    480.04016    715.83103 
    7100     99.64313    115.00113      2204118          147  0.007193656    442.94163    678.77332 
    7200    99.603443    109.50321      2204118          147  0.007193656    407.74536    643.48312 
    7300    99.603298    104.26996      2204118          147  0.007193656    374.44956    610.18698 
    7400    99.667651    99.284543      2204118          147  0.007193656    342.89246    578.78219 
    7500    99.714838    94.533865      2204118          147  0.007193656    313.04274    549.04415 
    7600    99.695228    90.004673      2204118          147  0.007193656    284.81164    520.76664 
    7700    99.668582    85.683598      2204118          147  0.007193656    258.01545    493.90738 
    7800    99.701009    81.564161      2204118          147  0.007193656    232.59213    468.56081 
    7900    99.758385    77.645795      2204118          147  0.007193656    208.65749    444.76196 
    8000    99.767664    73.913989      2204118          147  0.007193656    186.10891    422.23535 
    8100    99.736737    70.351736      2204118          147  0.007193656    164.72675    400.77999 
    8200    99.738392    66.958796      2204118          147  0.007193656    144.52453    380.58168 
    8300    99.787709    63.724542      2204118          147  0.007193656    125.39533    361.56921 
    8400    99.819754    60.641592      2204118          147  0.007193656    107.34107    343.59079 
    8500    99.799884    57.703345      2204118          147  0.007193656    90.338194    326.54089 
    8600     99.78044    54.907923      2204118          147  0.007193656    74.370311    310.52698 
    8700    99.809708    52.242683      2204118          147  0.007193656    59.251302    295.47724 
    8800    99.852406    49.704528      2204118          147  0.007193656    45.019077    281.34608 
    8900     99.85167    47.285267      2204118          147  0.007193656    31.633056    267.95831 
    9000    99.824481    44.980713      2204118          147  0.007193656    19.053652    255.31456 
    9100    99.829616    42.788588      2204118          147  0.007193656    7.2430787    243.51614 
    9200     99.87072    40.712253      2204118          147  0.007193656    -3.695266    232.67508 
    9300    99.890468    38.723792      2204118          147  0.007193656   -14.134598    222.28248 
    9400    99.867764    36.833317      2204118          147  0.007193656    -23.85145     212.5119 
    9500    99.853682    35.036387      2204118          147  0.007193656   -32.922678    203.40734 
    9600    99.882315    33.341391      2204118          147  0.007193656   -41.194404    195.20338 
    9700    99.916076     31.72437      2204118          147  0.007193656     -48.9958    187.48189 
    9800    99.906221    30.173702      2204118          147  0.007193656   -56.448979    180.00539 
    9900    99.878464    28.699264      2204118          147  0.007193656   -63.382158    173.00651 
   10000    99.888028    27.304915      2204118          147  0.007193656   -69.743765    166.66754 
   10100    99.927559    25.982386      2204118          147  0.007193656   -75.628889    160.87598 
   10200     99.94079     24.72848      2204118          147  0.007193656   -81.007711    155.52847 
   10300    99.915343    23.512358      2204118          147  0.007193656   -86.345549    150.13041 
   10400    99.903543    22.360671      2204118          147  0.007193656   -91.202755    145.24527 
   10500    99.934166    21.264049      2204118          147  0.007193656   -95.724455    140.79605 
   10600    99.961355    20.222966      2204118          147  0.007193656   -99.843202    136.74165 
   10700    99.943317    19.225076      2204118          147  0.007193656   -103.72139    132.82078 
   10800    99.912201    18.262759      2204118          147  0.007193656   -107.50607    128.96245 
   10900    99.923171    17.351127      2204118          147  0.007193656   -110.97697    125.51751 
   11000    99.962819    16.484658      2204118          147  0.007193656   -114.19219    122.39613 
   11100    99.970204    15.652724      2204118          147  0.007193656   -117.25276    119.35303 
   11200    99.939712    14.857538      2204118          147  0.007193656   -120.09196    116.44168 
   11300    99.929144    14.101941      2204118          147  0.007193656   -122.68491    113.82371 
   11400    99.961891    13.383189      2204118          147  0.007193656   -125.07364    111.51249 
   11500    99.986269    12.690532      2204118          147  0.007193656   -127.37849    109.26533 
   11600    99.964177    12.031819      2204118          147  0.007193656   -129.42962    107.16192 
   11700    99.935168    11.401263      2204118          147  0.007193656   -131.35104    105.17184 
   11800    99.949998    10.804661      2204118          147  0.007193656    -133.0806    103.47737 
   11900    99.986552    10.238701      2204118          147  0.007193656   -134.64392    102.00056 
   12000    99.986903    9.6980554      2204118          147  0.007193656   -136.06826    100.57706 
   12100    99.955128    9.1837599      2204118          147  0.007193656   -137.32389    99.246228 
   12200    99.948992     8.695433      2204118          147  0.007193656   -138.44765    98.107938 
   12300    99.981879    8.2323342      2204118          147  0.007193656   -139.44846    97.184972 
   12400    100.00057    7.7904256      2204118          147  0.007193656   -140.34121    96.336469 
   12500    99.974965      7.36876      2204118          147  0.007193656   -141.11267    95.504391 
   12600      99.9498    6.9689885      2204118          147  0.007193656   -141.76694    94.790566 
   12700    99.969422      6.59192      2204118          147  0.007193656   -142.31783    94.286114 
   12800    100.00308    6.2339305      2204118          147  0.007193656   -142.78903    93.894585 
   12900    99.996795      5.89479      2204118          147  0.007193656   -143.12914    93.539594 
   13000    99.963855    5.5715697      2204118          147  0.007193656   -143.38781    93.202961 
   13100    99.962128    5.2666645      2204118          147  0.007193656   -143.56304    93.023641 
   13200    99.996099     4.979521      2204118          147  0.007193656   -143.65918    93.007905 
   13300    100.00977    4.7052488      2204118          147  0.007193656   -143.70531    92.994127 
   13400    99.981376    4.4447912      2204118          147  0.007193656   -143.66282    92.969421 
   13500    99.960389     4.198452      2204118          147  0.007193656   -143.56139    93.021175 
   13600    99.983618     3.969427      2204118          147  0.007193656   -143.37105      93.2665 
   13700    100.01319     3.751676      2204118          147  0.007193656   -143.15461    93.552925 
   13800    100.00051    3.5453025      2204118          147  0.007193656   -142.86508    93.812441 
   13900    99.968378    3.3493645      2204118          147  0.007193656   -142.53185    94.069626 
   14000    99.971946     3.167124      2204118          147  0.007193656   -142.14053    94.469395 
   14100    100.00588    2.9963742      2204118          147  0.007193656   -141.71822    94.972004 
   14200    100.01371    2.8354534      2204118          147  0.007193656   -141.24181     95.46696 
   14300    99.983237    2.6827763      2204118          147  0.007193656   -140.72276    95.913887 
   14400    99.967342    2.5402854      2204118          147  0.007193656   -140.16521    96.433811 
   14500    99.994414    2.4086037      2204118          147  0.007193656   -139.57334    97.089755 
   14600    100.02059    2.2842567      2204118          147  0.007193656    -138.9606    97.764441 
   14700    100.00314    2.1665462      2204118          147  0.007193656   -138.29741    98.386355 
   14800    99.972412    2.0540441      2204118          147  0.007193656   -137.62872    98.982303 
   14900    99.980604    1.9501856      2204118          147  0.007193656   -136.93852    99.691895 
   15000    100.01393    1.8543125      2204118          147  0.007193656   -136.22654    100.48274 
   15100    100.01605    1.7632297      2204118          147  0.007193656   -135.50106    101.21325 
   15200    99.983251    1.6778335      2204118          147  0.007193656   -134.74511    101.89156 
   15300    99.970899    1.6003004      2204118          147  0.007193656   -133.96718    102.64026 
   15400    100.00038    1.5314568      2204118          147  0.007193656   -133.16851    103.50871 
   15500    100.02256    1.4685496      2204118          147  0.007193656   -132.35061    104.37909 
   15600    100.00082    1.4087646      2204118          147  0.007193656   -131.52454    105.15372 
   15700    99.973217    1.3537692      2204118          147  0.007193656   -130.68588    105.92705 
   15800    99.987912    1.3051445      2204118          147  0.007193656   -129.83886    106.80885 
   15900    100.02149    1.2610674      2204118          147  0.007193656   -128.98703    107.74016 
   16000     100.0182     1.219358      2204118          147  0.007193656   -128.11615    108.60324 
   16100    99.984189    1.1779897      2204118          147  0.007193656   -127.26213    109.37676 
   16200    99.977372    1.1400838      2204118          147  0.007193656   -126.41792    110.20484 
   16300    100.01016    1.1085496      2204118          147  0.007193656   -125.54337      111.157 
   16400    100.02767    1.0775923      2204118          147  0.007193656   -124.69036    112.05143 
   16500    99.999804    1.0465208      2204118          147  0.007193656   -123.84934    112.82651 
   16600    99.972792    1.0190971      2204118          147  0.007193656   -123.00132     113.6106 
   16700    99.991232    0.9970592      2204118          147  0.007193656   -122.16018    114.49539 
   16800    100.02344   0.98183539      2204118          147  0.007193656   -121.28171     115.4501 
   16900     100.0145   0.96696501      2204118          147  0.007193656   -120.43219    116.27846 
   17000    99.979279   0.95629464      2204118          147  0.007193656   -119.56062    117.06666 
   17100    99.977951   0.95202634      2204118          147  0.007193656   -118.67745    117.94668 
   17200    100.01364   0.95238206      2204118          147  0.007193656   -117.81015    118.89844 
   17300    100.02702   0.95441672      2204118          147  0.007193656   -116.95272    119.78754 
   17400     99.99694    0.9579048      2204118          147  0.007193656   -116.08427    120.58481 
   17500    99.975499   0.96373225      2204118          147  0.007193656   -115.22549    121.39284 
   17600    99.999961   0.97323204      2204118          147  0.007193656   -114.37922      122.297 
   17700    100.02897   0.98321787      2204118          147  0.007193656   -113.56183    123.18305 
   17800    100.01336   0.99279436      2204118          147  0.007193656   -112.74765    123.96029 
   17900    99.979069    1.0028293      2204118          147  0.007193656   -111.94426    124.68252 
   18000    99.983785    1.0162328      2204118          147  0.007193656   -111.15105    125.48689 
   18100    100.01948     1.034165      2204118          147  0.007193656     -110.342    126.38041 
   18200    100.02605    1.0505509      2204118          147  0.007193656    -109.5684    127.16957 
   18300    99.992324     1.066277      2204118          147  0.007193656   -108.80503    127.85312 
   18400     99.97542    1.0824981      2204118          147  0.007193656   -108.07786    128.54028 
   18500    100.00403    1.1030805      2204118          147  0.007193656   -107.34474    129.34111 
   18600    100.03002    1.1245842      2204118          147  0.007193656   -106.62283    130.12455 
   18700    100.00968    1.1458206      2204118          147  0.007193656   -105.89591    130.80331 
   18800    99.977648    1.1663787      2204118          147  0.007193656   -105.19895    131.42447 
   18900    99.987852    1.1904437      2204118          147  0.007193656   -104.50593    132.14164 
   19000    100.02342    1.2181353      2204118          147  0.007193656   -103.80073    132.93102 
   19100    100.02418    1.2434646      2204118          147  0.007193656    -103.1337    133.59985 
   19200    99.988941    1.2693801      2204118          147  0.007193656    -102.4548    134.19534 
   19300    99.977052    1.2952578      2204118          147  0.007193656   -101.82284    134.79917 
   19400    100.00871    1.3261297      2204118          147  0.007193656   -101.17017    135.52676 
   19500     100.0311    1.3552116      2204118          147  0.007193656   -100.56621    136.18372 
   19600      100.006     1.384225      2204118          147  0.007193656   -99.950698    136.73982 
   19700    99.975937    1.4121715      2204118          147  0.007193656   -99.375137    137.24423 
   19800    99.991819    1.4456558      2204118          147  0.007193656   -98.772131    137.88482 
   19900    100.02685    1.4789279      2204118          147  0.007193656   -98.217557    138.52232 
   20000    100.02073    1.5114219      2204118          147  0.007193656   -97.674363    139.05102 
   20100    99.983622    1.5473913      2204118          147  0.007193656   -97.083209    139.55435 
   20200    99.977654    1.5825135      2204118          147  0.007193656   -96.569423    140.05401 
   20300    100.01236    1.6230191      2204118          147  0.007193656   -96.038152    140.66741 
   20400    100.02925    1.6644298      2204118          147  0.007193656   -95.514985    141.23055 
   20500    100.00018    1.7040417      2204118          147  0.007193656   -95.018233    141.65851 
   20600    99.974758    1.7443631      2204118          147  0.007193656   -94.541014    142.07556 
   20700     99.99713    1.7895406      2204118          147  0.007193656   -94.044335    142.62519 
   20800    100.03045     1.834798      2204118          147  0.007193656   -93.572922    143.17546 
   20900    100.01823    1.8787805      2204118          147  0.007193656   -93.100784    143.61869 
   21000    99.981021    1.9209802      2204118          147  0.007193656   -92.653281    143.97812 
   21100     99.98084    1.9672224      2204118          147  0.007193656   -92.185717    144.44525 
   21200    100.01725    2.0131232      2204118          147  0.007193656   -91.772086    144.94506 
   21300    100.02757    2.0572845      2204118          147  0.007193656   -91.383544    145.35803 
   21400    99.994683    2.1010908      2204118          147  0.007193656   -90.978813    145.68492 
   21500    99.975706    2.1440858      2204118          147  0.007193656   -90.604853    146.01397 
   21600    100.00445    2.1907055      2204118          147  0.007193656   -90.207331    146.47952 
   21700    100.03284    2.2320828      2204118          147  0.007193656   -89.888751     146.8653 
   21800    100.01282    2.2703551      2204118          147  0.007193656   -89.572833    147.13382 
   21900    99.977636    2.3058615      2204118          147  0.007193656   -89.283582    147.33981 
   22000    99.985841    2.3413496      2204118          147  0.007193656   -89.026994    147.61581 
   22100    100.02283    2.3785014      2204118          147  0.007193656   -88.766926    147.96342 
   22200    100.02561    2.4155824      2204118          147  0.007193656   -88.484931    148.25199 
   22300    99.989446    2.4516721      2204118          147  0.007193656   -88.198079    148.45326 
   22400    99.974127    2.4877648      2204118          147  0.007193656    -87.94498     148.6701 
   22500    100.00436    2.5260996      2204118          147  0.007193656   -87.713909    148.97273 
   22600    100.02889    2.5669474      2204118          147  0.007193656   -87.461982    149.28272 
   22700    100.00641    2.6109247      2204118          147  0.007193656   -87.147206    149.54427 
   22800    99.974346    2.6498748      2204118          147  0.007193656   -86.937429    149.67817 
   22900    99.985444    2.6927668      2204118          147  0.007193656   -86.727158    149.91471 
   23000     100.0212    2.7411514      2204118          147  0.007193656   -86.474642    150.25185 
   23100    100.02141    2.7866869      2204118          147  0.007193656   -86.264957    150.46203 
   23200    99.986715    2.8322149      2204118          147  0.007193656   -86.041721    150.60315 
   23300    99.978103     2.876455      2204118          147  0.007193656   -85.862635    150.76186 
   23400    100.01199    2.9226921      2204118          147  0.007193656   -85.673579    151.03113 
   23500    100.03208    2.9655593      2204118          147  0.007193656     -85.5109    151.24135 
   23600     100.0038    3.0059646      2204118          147  0.007193656   -85.330498    151.35481 
   23700    99.974099    3.0413178      2204118          147  0.007193656   -85.214782    151.40023 
   23800    99.992954    3.0806064      2204118          147  0.007193656   -85.053327    151.60631 
   23900    100.02962    3.1198858      2204118          147  0.007193656   -84.883028     151.8634 
   24000    100.02267    3.1528641      2204118          147  0.007193656   -84.755924    151.97404 
   24100    99.984013    3.1797075      2204118          147  0.007193656   -84.681068    151.95741 
   24200    99.978175    3.2102703      2204118          147  0.007193656   -84.554777    152.06989 
   24300    100.01352    3.2383121      2204118          147  0.007193656   -84.500004    152.20831 
   24400    100.02738      3.26514      2204118          147  0.007193656   -84.457454    152.28367 
   24500    99.994455    3.2920934      2204118          147  0.007193656   -84.396522    152.26667 
   24600    99.968964    3.3206033      2204118          147  0.007193656   -84.347088    152.25578 
   24700    99.993162     3.357875      2204118          147  0.007193656    -84.23074    152.42939 
   24800    100.02576    3.3987471      2204118          147  0.007193656   -84.105466    152.63182 
   24900    100.01038    3.4384374      2204118          147  0.007193656   -84.009714    152.69118 
   25000    99.971958    3.4804965      2204118          147  0.007193656   -83.907031    152.70292 
   25100    99.974648    3.5320654      2204118          147  0.007193656    -83.72782     152.8885 
   25200    100.01447    3.5855048      2204118          147  0.007193656   -83.583216    153.12735 
   25300    100.02858    3.6419686      2204118          147  0.007193656   -83.375655    153.36831 
   25400    100.00086    3.6906632      2204118          147  0.007193656   -83.228168    153.45019 
   25500    99.988432    3.7300202      2204118          147  0.007193656     -83.1616    153.48734 
   25600    100.02059    3.7664265      2204118          147  0.007193656   -83.055419    153.66964 
   25700    100.04371    3.7900336      2204118          147  0.007193656   -83.029976     153.7498 
   25800    100.01014    3.8018569      2204118          147  0.007193656   -83.069706    153.63061 
   25900    99.965146    3.8079386      2204118          147  0.007193656   -83.167644    153.42618 
   26000    99.975943    3.8226081      2204118          147  0.007193656   -83.189309    153.43007 
   26100    100.01881    3.8395148      2204118          147  0.007193656   -83.254818    153.46603 
   26200    100.01767    3.8618269      2204118          147  0.007193656   -83.269015    153.44913 
   26300    99.973719     3.889588      2204118          147  0.007193656   -83.238294    153.37582 
   26400    99.962776     3.921651      2204118          147  0.007193656   -83.234746    153.35347 
   26500    100.00792    3.9665369      2204118          147  0.007193656   -83.110631    153.58442 
   26600    100.04105     4.010107      2204118          147  0.007193656   -83.007287    153.76619 
   26700    100.01447    4.0457442      2204118          147  0.007193656   -82.956526    153.75404 
   26800    99.974627    4.0747692      2204118          147  0.007193656   -82.962849    153.65342 
   26900    99.976501    4.1059104      2204118          147  0.007193656   -82.975177    153.64552 
   27000    99.984374    4.1544326      2204118          147  0.007193656   -82.834327    153.80501 
   27100     99.95161    4.2262257      2204118          147  0.007193656   -82.519297    154.04249 
   27200    100.02583    4.2961115      2204118          147  0.007193656   -82.227828    154.50961 
   27300    100.20502    4.3056687      2204118          147  0.007193656   -82.486207    154.67535 
   27400    99.995492    4.3161884      2204118          147  0.007193656   -82.586852     154.0788 
   27500    99.629011    4.3843723      2204118          147  0.007193656   -82.209194    153.58908 
   27600      99.8971    4.4774606      2204118          147  0.007193656   -81.869205    154.56357 
   27700     100.5543    4.5005693      2204118          147  0.007193656   -82.172467    155.81576 
   27800    100.28264     4.477148      2204118          147  0.007193656   -82.444613    154.90064 
   27900    99.390721    4.4787653      2204118          147  0.007193656   -82.356189    152.87811 
   28000    99.398202    4.5766324      2204118          147  0.007193656   -81.891893    153.36011 
   28100    100.45119    4.7152435      2204118          147  0.007193656   -81.489315    156.25486 
   28200    100.92869    4.7504064      2204118          147  0.007193656   -81.630935    157.24338 
   28300    99.848896    4.7008244      2204118          147  0.007193656   -81.822049    154.49664 
   28400    98.915191    4.7032536      2204118          147  0.007193656   -81.673966    152.43487 
   28500    99.699841    4.8286928      2204118          147  0.007193656    -81.24673    154.71918 
   28600    100.90385    5.0076163      2204118          147  0.007193656     -80.5815    158.23403 
   28700    100.72534    5.0566536      2204118          147  0.007193656   -80.322716    158.07031 
   28800    99.593473    4.9484208      2204118          147  0.007193656   -80.814854    154.89931 
   28900    99.213828    4.8529093      2204118          147  0.007193656   -81.451029    153.36461 
   29000    100.04354    4.8607948      2204118          147  0.007193656   -81.803847    154.97553 
   29100    100.56602    4.9508451      2204118          147  0.007193656   -81.488835    156.52713 
   29200    99.951184    5.0610569      2204118          147  0.007193656   -80.626894    155.93389 
   29300     99.67821    5.0835207      2204118          147  0.007193656   -80.558923    155.35579 
   29400    100.22246     5.041448      2204118          147  0.007193656    -81.23984    155.96298 
   29500     100.2582    5.0336062      2204118          147  0.007193656   -81.503883    155.78354 
   29600    99.584688    5.1014951      2204118          147  0.007193656   -81.060518    154.63285 
   29700    99.501026    5.2475693      2204118          147  0.007193656    -80.30585    155.18951 
   29800    100.38423    5.3953976      2204118          147  0.007193656    -79.88956    157.69613 
   29900    100.79853    5.4538864      2204118          147  0.007193656   -79.936958     158.6293 
   30000    99.956386    5.4096065      2204118          147  0.007193656    -80.37263    156.20046 
   30100    98.981084    5.4545148      2204118          147  0.007193656   -80.108309    154.15647 
   30200    99.405939    5.6925116      2204118          147  0.007193656   -79.008009    156.26231 
   30300    101.01949    5.9215703      2204118          147  0.007193656   -78.409521    160.67968 
   30400    101.16588    5.9777093      2204118          147  0.007193656   -78.548794    160.88688 
   30500    99.156001    5.9999631      2204118          147  0.007193656   -78.206752    156.47202 
   30600    98.378047     6.167315      2204118          147  0.007193656   -77.235456    155.60208 
   30700    100.32634    6.4712699      2204118          147  0.007193656   -76.262375    161.18631 
   30800    101.90133    6.7004413      2204118          147  0.007193656   -75.725789    165.45054 
   30900     100.3162    6.7481094      2204118          147  0.007193656   -75.379167    162.04551 
   31000    98.235241    6.7589679      2204118          147  0.007193656   -75.143501    157.35605 
   31100    98.901854    6.9813529      2204118          147  0.007193656   -74.284412    159.79285 
   31200    101.33799     7.315497      2204118          147  0.007193656   -73.165785    166.67723 
   31300    101.93634    7.3822988      2204118          147  0.007193656   -73.201492    168.05767 
   31400    99.686229    7.1198753      2204118          147  0.007193656   -74.563385    161.37031 
   31500    97.846232    6.9425231      2204118          147  0.007193656    -75.43891    156.13995 
   31600     99.33243    7.0493139      2204118          147  0.007193656   -75.538822    159.55751 
   31700    101.65685    7.3429342      2204118          147  0.007193656   -74.750456    165.84724 
   31800    100.80651    7.6431253      2204118          147  0.007193656   -72.923524    165.66162 
   31900    98.417359    7.9427988      2204118          147  0.007193656    -70.55883    162.37175 
   32000     99.01136    8.2452864      2204118          147  0.007193656   -69.175501    165.16094 
   32100    101.87177    8.4222379      2204118          147  0.007193656   -69.349767    171.75659 
   32200    101.72753    8.3724622      2204118          147  0.007193656   -70.056319    170.70865 
   32300    98.408065    8.2709348      2204118          147  0.007193656   -69.983088     162.9255 
   32400    97.426336     8.425504      2204118          147  0.007193656   -68.915442    161.66962 
   32500    100.53003    8.8674111      2204118          147  0.007193656   -67.203818    170.72695 
   32600       102.83    9.2557181      2204118          147  0.007193656   -65.563138    177.81112 
   32700    100.86145    9.2015189      2204118          147  0.007193656   -65.549395    173.16576 
   32800    97.877819    8.9367589      2204118          147  0.007193656   -66.644203    165.00942 
   32900    98.299212    8.8956085      2204118          147  0.007193656   -67.350792    165.30016 
   33000     101.3546    9.0853393      2204118          147  0.007193656   -67.303258    172.57909 
   33100    101.91293    9.2462909      2204118          147  0.007193656   -66.669622    174.53414 
   33200    99.025204    9.3255182      2204118          147  0.007193656   -65.379012    168.99019 
   33300    97.916752    9.4364722      2204118          147  0.007193656   -64.487365     167.2584 
   33400    100.39215    9.6767269      2204118          147  0.007193656   -63.870645     173.7338 
   33500    102.20743    9.8905874      2204118          147  0.007193656   -63.073317    178.82746 
   33600    100.30292    9.8957133      2204118          147  0.007193656   -62.356261    175.03701 
   33700     98.44726    9.6742694      2204118          147  0.007193656   -63.274259    169.72709 
   33800    98.838142    9.6973718      2204118          147  0.007193656   -63.175422    170.75105 
   33900    100.66511    9.9914887      2204118          147  0.007193656   -61.584574     176.6659 
   34000    101.61173    10.150917      2204118          147  0.007193656   -60.589454    179.90145 
   34100    100.76519    9.8376947      2204118          147  0.007193656   -62.387679    176.09965 
   34200    98.587847    9.4932367      2204118          147  0.007193656   -63.957529    169.37656 
   34300    98.324832    9.4357678      2204118          147  0.007193656   -64.224196     168.4874 
   34400    100.55707     9.639133      2204118          147  0.007193656   -63.560129    174.43464 
   34500    101.74987    9.8451817      2204118          147  0.007193656   -62.523161    178.29469 
   34600    100.37742    9.7544439      2204118          147  0.007193656   -62.702154    174.86743 
   34700    98.652333    9.5364142      2204118          147  0.007193656     -63.6221    169.86461 
   34800    98.681845    9.6062892      2204118          147  0.007193656   -63.013876    170.54268 
   34900    100.44294    9.9437303      2204118          147  0.007193656   -61.146097    176.57856 
   35000    101.91134    10.095469      2204118          147  0.007193656    -60.46456    180.73544 
   35100    100.65367    9.8973601      2204118          147  0.007193656   -61.295737    176.92767 
   35200    98.431739    9.6024953      2204118          147  0.007193656   -62.410323    170.55429 
   35300    98.639889    9.5037632      2204118          147  0.007193656   -62.958062     170.4992 
   35400    100.99069    9.5699863      2204118          147  0.007193656   -63.082669    175.93837 
   35500    101.84521    9.5004683      2204118          147  0.007193656   -63.709424    177.33408 
   35600    99.783436    9.2121505      2204118          147  0.007193656    -64.82221    171.34155 
   35700    98.389819     8.853158      2204118          147  0.007193656   -66.709566    166.15583 
   35800    99.624376    8.6555465      2204118          147  0.007193656   -68.460385    167.32692 
   35900    100.64235    8.7988592      2204118          147  0.007193656   -67.829045    170.36757 
   36000    99.822531    9.1655835      2204118          147  0.007193656   -65.029636    171.22665 
   36100     99.19651    9.5758729      2204118          147  0.007193656   -61.978904    172.79574 
   36200    100.50712    9.8310408      2204118          147  0.007193656   -60.509663     177.3669 
   36300    101.95431    9.6677936      2204118          147  0.007193656   -61.881377    179.42034 
   36400    100.57372    9.1427341      2204118          147  0.007193656   -64.726781    173.30741 
   36500    98.111889    8.6284571      2204118          147  0.007193656   -67.132314    165.07529 
   36600    98.202259    8.5083204      2204118          147  0.007193656   -67.681933    164.73956 
   36700    100.59724    8.8044518      2204118          147  0.007193656   -66.204585    171.88527 
   36800    101.83965    9.1276749      2204118          147  0.007193656   -64.243395    176.78694 
   36900    100.61064    9.0656818      2204118          147  0.007193656   -64.265975    173.85557 
   37000     98.67212    8.8470248      2204118          147  0.007193656   -65.125483    168.40806 
   37100    98.636144    8.8547657      2204118          147  0.007193656   -65.024047    168.42435 
   37200    100.72551    9.0462912      2204118          147  0.007193656   -64.428257    173.96517 
   37300    101.12207    9.3633802      2204118          147  0.007193656   -62.375705    176.95629 
   37400    99.143796    9.7466225      2204118          147  0.007193656   -59.031395    175.61849 
   37500    98.955512    10.060356      2204118          147  0.007193656   -56.710347    177.49391 
   37600    101.25732     10.18307      2204118          147  0.007193656   -56.415302     183.2368 
   37700     101.7597    10.056949      2204118          147  0.007193656   -56.991638    183.84946 
   37800    99.447854    9.6968226      2204118          147  0.007193656   -58.045466    177.32405 
   37900    98.339363    9.2839756      2204118          147  0.007193656   -59.799957    172.94603 
   38000    100.48198    8.8474863      2204118          147  0.007193656    -62.89766    174.91939 
   38100    101.53519     8.488387      2204118          147  0.007193656   -65.154999    175.15474 
   38200    99.206268    8.2939261      2204118          147  0.007193656   -65.224331    169.57341 
   38300    97.826995    8.3233211      2204118          147  0.007193656   -64.192328      167.341 
   38400    100.06011    8.5477214      2204118          147  0.007193656   -63.100578    173.71801 
   38500    102.43046    8.7021265      2204118          147  0.007193656   -62.558976    179.86966 
   38600    100.70216    8.6345878      2204118          147  0.007193656   -62.118308    176.21985 
   38700    97.992347    8.4479145      2204118          147  0.007193656   -62.098563    169.82611 
   38800    98.922823    8.3273674      2204118          147  0.007193656   -62.898245    171.22865 
   38900    101.76361    8.2712873      2204118          147  0.007193656   -64.014309    176.83605 
   39000    101.26418    8.2178599      2204118          147  0.007193656    -63.98591    175.68242 
   39100     98.26329    8.2071512      2204118          147  0.007193656   -62.967416    169.59852 
   39200    97.970875    8.4255282      2204118          147  0.007193656    -61.29302    170.58084 
   39300    101.46951      8.68168      2204118          147  0.007193656   -60.677377    179.47692 
   39400    102.96053    8.6582285      2204118          147  0.007193656   -61.287165    182.39603 
   39500    99.384342    8.3836691      2204118          147  0.007193656    -61.92965    173.28955 
   39600    96.724908    8.2354216      2204118          147  0.007193656   -62.009695    166.91526 
   39700    99.080682    8.5089309      2204118          147  0.007193656   -60.884362    173.61615 
   39800      102.576    9.0406184      2204118          147  0.007193656   -58.356268    184.41683 
   39900    101.75371    9.3361891      2204118          147  0.007193656   -56.004843    184.82208 
   40000    98.459155    9.2997106      2204118          147  0.007193656   -54.981678    178.04782 
   40100    98.434576     9.124222      2204118          147  0.007193656   -55.970129     177.0012 
   40200    101.36278     8.952219      2204118          147  0.007193656   -57.726437    182.17526 
   40300    101.84265    8.7133672      2204118          147  0.007193656   -59.032072    182.00537 
   40400    98.869748    8.4367079      2204118          147  0.007193656   -59.497568    174.50371 
   40500    97.673233    8.3180113      2204118          147  0.007193656   -59.472608     171.6968 
   40600    100.62429    8.3067388      2204118          147  0.007193656   -60.147321    178.00655 
   40700    102.41107    8.3045943      2204118          147  0.007193656   -60.385618    181.99713 
   40800    99.840137    8.1921171      2204118          147  0.007193656   -60.044038    176.25392 
   40900    97.387772    8.1696658      2204118          147  0.007193656    -59.17356    171.32023 
   41000    99.416127    8.3303005      2204118          147  0.007193656   -58.520775    176.77365 
   41100    102.64199    8.4903878      2204118          147  0.007193656   -58.298825    184.63046 
   41200    101.12388    8.5120076      2204118          147  0.007193656   -57.440666    181.89561 
   41300    97.679005    8.4629474      2204118          147  0.007193656   -56.345491    174.83758 
   41400    98.484434     8.469471      2204118          147  0.007193656   -56.302625    176.78671 
   41500    102.07243    8.5123036      2204118          147  0.007193656   -56.959864    184.62141 
   41600    102.13614    8.3920033      2204118          147  0.007193656   -57.445265    184.28679 
   41700    98.521447    8.1197951      2204118          147  0.007193656   -57.818913    175.35802 
   41800    97.150111    8.0751319      2204118          147  0.007193656   -57.441837    172.48947 
   41900    100.46049    8.3067323      2204118          147  0.007193656    -56.68165    181.08455 
   42000    103.47899    8.3603283      2204118          147  0.007193656   -57.200024    187.71023 
   42100    100.70093    8.0749304      2204118          147  0.007193656   -58.160618    180.17464 
   42200    96.482237    7.8718515      2204118          147  0.007193656   -58.130881    170.21972 
   42300    97.778934    8.0891255      2204118          147  0.007193656   -57.130532    174.28905 
   42400    102.51706    8.6242969      2204118          147  0.007193656   -55.154799    187.47881 
   42500    102.83958    9.0247472      2204118          147  0.007193656   -52.553403    190.84352 
   42600    98.938297    8.9498908      2204118          147  0.007193656   -51.816598    182.34692 
   42700    97.375173    8.7791449      2204118          147  0.007193656   -52.378208    178.08577 
   42800    100.53163    8.6763232      2204118          147  0.007193656   -54.032933    183.90163 
   42900    102.37243    8.6891165      2204118          147  0.007193656   -54.251828    188.03946 
   43000    100.36045    8.4294683      2204118          147  0.007193656   -55.166727     182.3627 
   43100    97.824355    8.1547877      2204118          147  0.007193656   -56.140082      175.387 
   43200    98.289207    8.2822917      2204118          147  0.007193656   -55.458057    177.16922 
   43300    99.995904    9.1841545      2204118          147  0.007193656   -49.568823     187.0978 
   43400    105.49246    8.7343489      2204118          147  0.007193656    -55.32546    194.35021 
   43500    99.133164    8.7211709      2204118          147  0.007193656   -53.573142    181.05158 
   43600    94.079589    8.9178206      2204118          147  0.007193656   -51.042885    171.62122 
   43700    98.702478    9.6094515      2204118          147  0.007193656   -48.442187     185.1632 
   43800    104.96981    10.698186      2204118          147  0.007193656   -43.383944    205.05475 
   43900    103.27787    11.127919      2204118          147  0.007193656   -40.072871    204.36139 
   44000    96.626955     11.10267      2204118          147  0.007193656   -37.726507    190.96661 
   44100    99.126331    10.147616      2204118          147  0.007193656   -45.419096    189.18945 
   44200    100.30476    10.345894      2204118          147  0.007193656   -44.002884    193.39473 
   44300    101.27022    10.393282      2204118          147  0.007193656   -43.851254    195.83138 
   44400    100.76832    10.102691      2204118          147  0.007193656   -45.893043     192.6017 
   44500    97.364866     10.34962      2204118          147  0.007193656   -43.120596    187.31898 
   44600     96.96789    11.267522      2204118          147  0.007193656   -36.556441    192.94359 
   44700     104.1898    11.626745      2204118          147  0.007193656   -36.781601    209.81099 
   44800    105.22069    11.366956      2204118          147  0.007193656   -39.379743    209.65271 
   44900    95.043377    11.530127      2204118          147  0.007193656   -34.870662     190.0745 
   45000    93.936556    11.844931      2204118          147  0.007193656   -32.499767    189.82581 
   45100    103.54905    12.439453      2204118          147  0.007193656   -31.838292    213.23778 
   45200    108.18225    12.503016      2204118          147  0.007193656   -33.245611    222.79616 
   45300    96.694035    12.551636      2204118          147  0.007193656   -29.096888    199.75499 
   45400    90.679929    13.017778      2204118          147  0.007193656   -23.846499    190.77142 
   45500    103.86149    12.899498      2204118          147  0.007193656    -29.53665     216.2789 
   45600    110.69995    12.545612      2204118          147  0.007193656    -34.71154    227.28903 
   45700    95.369027    12.531094      2204118          147  0.007193656   -29.526534    196.18937 
   45800     90.72346    12.144872      2204118          147  0.007193656   -31.084231    183.63671 
   45900    100.23765    12.744904      2204118          147  0.007193656   -30.146769    207.09201 
   46000    110.54558    13.255986      2204118          147  0.007193656   -30.115487    231.51971 
   46100    103.10758    12.599819      2204118          147  0.007193656    -32.58572     211.4455 
   46200    88.983658    12.536445      2204118          147  0.007193656   -28.279943     182.3233 
   46300    94.209849    12.824886      2204118          147  0.007193656   -28.227986    194.74442 
   46400     108.6552     13.92726      2204118          147  0.007193656   -25.103983    232.05714 
   46500    111.45454    13.137272      2204118          147  0.007193656   -31.795832    231.99068 
   46600    92.375499    12.294215      2204118          147  0.007193656   -31.052876    187.57805 
   46700    87.290007    11.959988      2204118          147  0.007193656   -31.863679    174.73109 
   46800     101.7784    12.871629      2204118          147  0.007193656   -30.548952    210.33641 
   46900    112.80933    14.289233      2204118          147  0.007193656   -24.283748    242.70921 
   47000     103.3747    13.657993      2204118          147  0.007193656   -26.000629    218.66281 
   47100    88.524561    13.140982      2204118          147  0.007193656   -24.811551    184.70512 
   47200    91.564783    13.725976      2204118          147  0.007193656   -21.573158      195.139 
   47300    111.06176    14.364646      2204118          147  0.007193656   -23.594642    239.26225 
   47400    110.77022    14.394619      2204118          147  0.007193656   -23.021071    239.14582 
   47500    92.749573    13.379837      2204118          147  0.007193656    -23.89465    195.62162 
   47600    89.482318    12.394509      2204118          147  0.007193656   -29.987103    181.79635 
   47700    100.91902    12.944677      2204118          147  0.007193656    -30.00869    208.84272 
   47800    110.02828    14.011408      2204118          147  0.007193656   -25.430811    234.98006 
   47900    102.99119    13.712087      2204118          147  0.007193656   -25.125222    218.63053 
   48000    92.581235     12.75811      2204118          147  0.007193656    -28.34224    190.77562 
   48100    93.651269     12.68273      2204118          147  0.007193656    -28.92681    192.72356 
   48200    106.68334    12.690714      2204118          147  0.007193656   -33.235792    219.25841 
   48300    106.05774     13.02222      2204118          147  0.007193656   -30.427582    220.58598 
   48400    94.965697    12.891488      2204118          147  0.007193656   -27.777562    196.98375 
   48500    92.385917    13.267245      2204118          147  0.007193656   -24.312966    194.34262 
   48600    105.81476    13.088118      2204118          147  0.007193656   -30.664331    219.77416 
   48700    107.32992    13.225272      2204118          147  0.007193656   -30.450222    223.57429 
   48800     95.19553    13.162769      2204118          147  0.007193656   -27.089396    198.21588 
   48900    91.804115    13.359412      2204118          147  0.007193656   -24.941975    192.33662 
   49000    101.35396    14.314214      2204118          147  0.007193656   -21.529565    218.35126 
   49100    110.74511    14.649354      2204118          147  0.007193656   -22.340405    239.76704 
   49200    102.22048     13.68521      2204118          147  0.007193656   -26.269919    215.66175 
   49300    89.459394    13.107038      2204118          147  0.007193656   -25.865164    185.86404 
   49400    92.563189    13.728626      2204118          147  0.007193656   -22.260914    196.81423 
   49500     110.8457    14.219866      2204118          147  0.007193656   -24.872797    237.47273 
   49600    110.94016    13.620226      2204118          147  0.007193656   -29.058035    233.51106 
   49700    89.871331    13.197052      2204118          147  0.007193656   -24.292176    188.41198 
   49800    89.126328    12.593304      2204118          147  0.007193656   -28.189036    182.75188 
   49900    106.24124    12.827282      2204118          147  0.007193656   -32.152267     219.2956 
   50000    110.90643    13.433654      2204118          147  0.007193656   -29.199397    233.28986 
   50100    95.498993    13.525712      2204118          147  0.007193656   -23.029207    202.99429 
   50200    90.846295    13.153835      2204118          147  0.007193656   -24.063023    190.94864 
   50300    101.58572    13.305925      2204118          147  0.007193656   -26.584445    213.84489 
   50400    109.82502    13.446564      2204118          147  0.007193656   -28.476852    231.45297 
   50500     99.14712    13.427395      2204118          147  0.007193656   -24.833236    209.82452 
   50600    92.645481    12.741443      2204118          147  0.007193656   -27.553369    191.71654 
   50700    98.934549    12.374006      2204118          147  0.007193656   -32.302813    201.85183 
   50800    106.18872    12.445718      2204118          147  0.007193656   -34.285729    217.03782 
   50900    100.03491    12.991371      2204118          147  0.007193656   -28.119984    208.63896 
   51000    96.287967    12.697409      2204118          147  0.007193656   -29.087025    198.80379 
   51100    99.373282    12.488472      2204118          147  0.007193656   -31.798419    203.39461 
   51200    100.87481    13.256395      2204118          147  0.007193656   -26.790484     211.9563 
   51300      100.604    14.043551      2204118          147  0.007193656   -20.891184    217.21467 
   51400     102.0882    13.793825      2204118          147  0.007193656   -22.984082    218.63452 
   51500    101.58378    12.784473      2204118          147  0.007193656   -29.586032    210.83872 
   51600    98.015261      11.7995      2204118          147  0.007193656   -34.867436    197.11147 
   51700    97.152286    11.225035      2204118          147  0.007193656   -38.255234    191.68122 
   51800    99.692991    11.366832      2204118          147  0.007193656   -37.927466    198.02224 
   51900    101.78794    11.912828      2204118          147  0.007193656   -34.769607    206.13833 
   52000    101.57465    12.067686      2204118          147  0.007193656   -33.704627    206.69852 
   52100    99.233409    11.916911      2204118          147  0.007193656   -34.060777     200.8012 
   52200    97.403217    12.098791      2204118          147  0.007193656   -32.181272    198.34908 
   52300    100.55412     12.28099      2204118          147  0.007193656   -32.171392    205.81641 
   52400    102.71078    12.466569      2204118          147  0.007193656   -31.835021    211.25706 
   52500    99.538849    12.677775      2204118          147  0.007193656    -29.35567    206.22921 
   52600    98.391143    12.472776      2204118          147  0.007193656    -30.61313    202.25541 
   52700    99.668259     12.49076      2204118          147  0.007193656   -30.797919    205.09325 
   52800    101.72319    12.454304      2204118          147  0.007193656   -31.734566    209.02014 
   52900     100.9382    12.253983      2204118          147  0.007193656     -32.7334    206.16341 
   53000    98.741627    11.915143      2204118          147  0.007193656   -34.309106    199.38894 
   53100     98.19505    11.858477      2204118          147  0.007193656   -34.444734     197.9597 
   53200    100.19639    12.110678      2204118          147  0.007193656   -33.372272    203.76885 
   53300    101.73268    12.403381      2204118          147  0.007193656   -31.854644    208.92251 
   53400    101.06156    12.297389      2204118          147  0.007193656   -32.417607    206.77118 
   53500    98.894847    12.006095      2204118          147  0.007193656   -33.721234    200.33945 
   53600      98.5947    11.786623      2204118          147  0.007193656   -35.097339    198.25297 
   53700    100.91295    11.583217      2204118          147  0.007193656   -37.182501    201.65456 
   53800    101.36334    11.429207      2204118          147  0.007193656   -38.204507    201.69852 
   53900    99.143758     11.29558      2204118          147  0.007193656    -38.24842    196.40138 
   54000    97.600997    11.502995      2204118          147  0.007193656   -36.199235    194.79921 
   54100    100.25566    11.850505      2204118          147  0.007193656   -34.522307     202.7591 
   54200    102.98011    12.022063      2204118          147  0.007193656   -34.126532    209.60301 
   54300    100.57031    11.951347      2204118          147  0.007193656   -33.723473    204.30264 
   54400    97.287845    11.829832      2204118          147  0.007193656    -33.33362    196.92367 
   54500    98.942062    11.795693      2204118          147  0.007193656   -33.966793    200.20564 
   54600    102.77897    11.705964      2204118          147  0.007193656   -35.770649    207.48282 
   54700    101.05377    11.669329      2204118          147  0.007193656   -35.073981    204.09637 
   54800    97.622612    11.522053      2204118          147  0.007193656   -34.561674    196.48793 
   54900    99.003299    11.277229      2204118          147  0.007193656   -36.370898    197.94646 
   55000    102.06167    11.107454      2204118          147  0.007193656    -38.18987    203.36594 
   55100    101.14518     10.93012      2204118          147  0.007193656   -38.655189    200.73151 
   55200    98.408153    10.638303      2204118          147  0.007193656   -39.349729    193.55906 
   55300    98.846677    10.326134      2204118          147  0.007193656   -41.334713    192.61196 
   55400    101.29332    10.094378      2204118          147  0.007193656   -43.539183    196.19812 
   55500    100.54429    10.113982      2204118          147  0.007193656   -43.095475    194.86905 
   55600    97.894687    10.454301      2204118          147  0.007193656   -39.743777    191.94976 
   55700    99.546923    10.703043      2204118          147  0.007193656   -38.605314    196.99868 
   55800    102.56712    10.806397      2204118          147  0.007193656   -38.896665    203.85543 
   55900    101.07908    10.734494      2204118          147  0.007193656   -38.911414    200.31882 
   56000    97.552478    10.679829      2204118          147  0.007193656   -38.065743    192.81787 
   56100    98.127132    10.808666      2204118          147  0.007193656   -37.392828    194.85085 
   56200    102.24329    10.972528      2204118          147  0.007193656   -37.629277    204.35638 
   56300    102.58904    10.940387      2204118          147  0.007193656   -38.005544    204.79842 
   56400    97.959325    10.895055      2204118          147  0.007193656   -36.633476    195.21305 
   56500    97.764726    10.683651      2204118          147  0.007193656   -37.984524    193.40143 
   56600    101.66863     10.53453      2204118          147  0.007193656   -40.326373    200.29919 
   56700    101.55114    10.664936      2204118          147  0.007193656   -39.228365    201.11914 
   56800    98.630177    10.735227      2204118          147  0.007193656   -37.592614    195.84166 
   56900    98.482983    10.754742      2204118          147  0.007193656   -37.302263    195.78364 
   57000    100.88237    10.892204      2204118          147  0.007193656   -37.091559    201.67312 
   57100    101.31727     11.13039      2204118          147  0.007193656   -35.413657    204.38033 
   57200    100.14107     11.04435      2204118          147  0.007193656   -35.471536    201.53867 
   57300    99.205938    10.789951      2204118          147  0.007193656   -36.894144    197.90282 
   57400    98.904724    10.837012      2204118          147  0.007193656   -36.436393    197.64767 
   57500    99.650046    11.253405      2204118          147  0.007193656   -33.518047    202.33001 
   57600    101.66458    11.459462      2204118          147  0.007193656   -32.449405    208.16658 
   57700    102.05186    11.092625      2204118          147  0.007193656   -34.863616    206.66898 
   57800    98.869532    10.582186      2204118          147  0.007193656   -36.975643    197.02512 
   57900    96.917125    10.405774      2204118          147  0.007193656   -37.063793    192.31609 
   58000    100.63142    10.284196      2204118          147  0.007193656   -38.685677    199.48507 
   58100    103.45369    10.069759      2204118          147  0.007193656   -40.660931    204.18946 
   58200     100.0876     9.674494      2204118          147  0.007193656   -41.756854    195.12679 
   58300    96.606411    9.3139319      2204118          147  0.007193656   -42.701281    185.94322 
   58400    98.164705    9.4495624      2204118          147  0.007193656   -41.957405     190.3752 
   58500    102.44413    9.8891327      2204118          147  0.007193656   -40.090435    202.37056 
   58600    102.56632     10.15131      2204118          147  0.007193656   -38.050305    204.69989 
   58700    98.507279    10.121673      2204118          147  0.007193656   -36.523308    196.62009 
   58800     98.39349    9.7025263      2204118          147  0.007193656   -39.090164    193.78393 
   58900    101.14039    9.3578353      2204118          147  0.007193656   -42.019405    197.35596 
   59000    101.65188    9.0372326      2204118          147  0.007193656   -44.032085    196.55384 
   59100     98.88031    8.7762713      2204118          147  0.007193656   -44.618214    189.40806 
   59200    96.958554    8.9872649      2204118          147  0.007193656    -42.21474     187.2632 
   59300     100.2324    9.4029415      2204118          147  0.007193656   -40.187388    197.03896 
   59400    104.03713    9.5093583      2204118          147  0.007193656   -40.518858     205.7124 
   59500    100.70783     9.346456      2204118          147  0.007193656   -40.074831    198.27675 
   59600    96.476024    9.0497706      2204118          147  0.007193656   -40.234213    188.10169 
   59700    98.771503    8.8026631      2204118          147  0.007193656   -42.337083    191.43167 
   59800    102.89902    8.7605851      2204118          147  0.007193656   -43.575196    199.96241 
   59900    101.71559    8.6145353      2204118          147  0.007193656   -43.766097    196.97062 
   60000    97.871116     8.270078      2204118          147  0.007193656   -44.595295    187.04246 
   60100    97.304717    8.2342614      2204118          147  0.007193656    -44.37291    185.92431 
   60200    100.85569    8.5548234      2204118          147  0.007193656     -43.2514    195.45014 
   60300    103.10276    8.8038451      2204118          147  0.007193656   -42.250257    201.76956 
   60400    100.04265    8.8106153      2204118          147  0.007193656   -41.154443    195.62282 
   60500    97.118647    8.7697316      2204118          147  0.007193656   -40.468103    189.38873 
   60600    99.106948    8.9239498      2204118          147  0.007193656     -40.1333    194.42938 
   60700    102.82354     9.090345      2204118          147  0.007193656   -40.347777    203.01119 
   60800     101.5053    9.0981557      2204118          147  0.007193656     -39.9167    200.32232 
   60900    97.614999    8.9918125      2204118          147  0.007193656   -39.294676    191.73691 
   61000    97.905658    8.9973079      2204118          147  0.007193656   -39.234874    192.48463 
   61100     102.0183    9.0715563      2204118          147  0.007193656   -39.806923    201.64624 
   61200     102.8377    8.9427255      2204118          147  0.007193656   -40.636798    202.75567 
   61300    98.919944    8.5462202      2204118          147  0.007193656   -41.895155    192.22493 
   61400    96.300291    8.4634554      2204118          147  0.007193656   -41.371997    186.54799 
   61500    99.117815    8.9250886      2204118          147  0.007193656   -38.866551    195.72184 
   61600    104.48082     9.142534      2204118          147  0.007193656   -39.125372    208.15598 
   61700    102.10813    9.0204897      2204118          147  0.007193656   -39.167284    202.49848 
   61800    96.026619    8.8231022      2204118          147  0.007193656   -38.553005    188.71926 
   61900    96.247077    9.0744228      2204118          147  0.007193656    -36.89563    190.89841 
   62000    102.69816    9.6553908      2204118          147  0.007193656   -35.020804    208.04143 
   62100    105.02225    9.8858791      2204118          147  0.007193656   -34.089982    214.47281 
   62200    99.666144    9.3320713      2204118          147  0.007193656   -35.961339    199.92482 
   62300    95.378505    8.7066918      2204118          147  0.007193656   -38.582819    187.15552 
   62400    98.160573    8.6427738      2204118          147  0.007193656   -39.599091    192.72374 
   62500    104.00873    8.7850933      2204118          147  0.007193656   -40.258999    205.90503 
   62600    102.75622     8.697615      2204118          147  0.007193656   -40.126305    203.07334 
   62700    96.670353    8.4689663      2204118          147  0.007193656   -39.330909    189.46492 
   62800    96.311581     8.469708      2204118          147  0.007193656   -38.880572    189.06613 
   62900    102.68418    8.5740086      2204118          147  0.007193656    -40.03224     202.9969 
   63000    104.61704    8.4452363      2204118          147  0.007193656   -41.249187    206.35458 
   63100    98.327495    8.0438563      2204118          147  0.007193656   -41.597978    191.11992 
   63200    94.910567    7.8351293      2204118          147  0.007193656   -41.532226    183.09861 
   63300    100.26713    7.9151997      2204118          147  0.007193656   -42.435343     194.8732 
   63400    105.53069     7.922704      2204118          147  0.007193656   -43.914883    205.85127 
   63500    100.61989    7.7026317      2204118          147  0.007193656    -43.56176    194.58169 
   63600    94.467361    7.5927335      2204118          147  0.007193656   -42.134247    181.44762 
   63700    97.650907    7.8674717      2204118          147  0.007193656   -41.218577      189.898 
   63800    105.24361    8.2621229      2204118          147  0.007193656   -41.044682    208.04203 
   63900    103.98122    8.1782535      2204118          147  0.007193656   -41.242594    204.85633 
   64000    96.013592    7.7874579      2204118          147  0.007193656   -41.349033     185.8924 
   64100    94.806089    7.7389694      2204118          147  0.007193656   -41.351431    183.03213 
   64200    101.81573    8.2424158      2204118          147  0.007193656   -40.306947    200.66677 
   64300    105.48009    8.7795175      2204118          147  0.007193656   -37.729008    211.91738 
   64400    100.12462    8.6755969      2204118          147  0.007193656   -36.482147    200.48912 
   64500    95.507078    8.2824837      2204118          147  0.007193656    -37.41782    188.62481 
   64600     98.59615     8.140922      2204118          147  0.007193656   -39.114842    194.23889 
   64700    103.71968    8.2590644      2204118          147  0.007193656   -39.493815     205.9861 
   64800    102.76564    7.9861697      2204118          147  0.007193656   -40.618352    202.60359 
   64900    97.616154    7.3535148      2204118          147  0.007193656   -43.034237    188.00008 
   65000    95.562351    7.2815972      2204118          147  0.007193656   -42.659259    183.51419 
   65100    100.15776    7.8261836      2204118          147  0.007193656    -40.35835    196.69135 
   65200    104.64622    8.3905733      2204118          147  0.007193656   -37.904176    209.76864 
   65300    101.85294    8.3027444      2204118          147  0.007193656   -37.572186     203.4896 
   65400    96.378958    7.9382228      2204118          147  0.007193656   -38.122182    189.98399 
   65500    97.050565    7.8277825      2204118          147  0.007193656   -38.921177    190.77453 
   65600    102.74196    7.9415755      2204118          147  0.007193656   -39.868253    203.29763 
   65700    103.52852    7.9416517      2204118          147  0.007193656   -39.948768    205.07872 
   65800    98.006356    7.7558175      2204118          147  0.007193656   -39.263436     192.6944 
   65900    95.716424    7.8083545      2204118          147  0.007193656   -37.901366    188.63674 
   66000    101.48732    7.8730039      2204118          147  0.007193656   -39.201996    200.99446 
   66100     105.2463     7.697608      2204118          147  0.007193656   -41.424788    207.66828 
   66200    99.496739    7.2527669      2204118          147  0.007193656   -42.403903    193.08132 
   66300    94.322433    7.0558133      2204118          147  0.007193656   -41.953015    181.28585 
   66400    97.977643    7.4933271      2204118          147  0.007193656   -40.193707    191.69617 
   66500    105.36196    8.1053907      2204118          147  0.007193656   -38.470266    210.89655 
   66600    103.83443    8.1687476      2204118          147  0.007193656   -37.712561    208.03894 
   66700    95.652607    8.0094285      2204118          147  0.007193656    -36.12057     190.2665 
   66800     95.54629    7.9336901      2204118          147  0.007193656   -36.772374    189.36307 
   66900    103.01195    8.1773835      2204118          147  0.007193656   -37.675585     206.1293 
   67000    105.25107    8.2491258      2204118          147  0.007193656   -37.944365    211.15999 
   67100    98.365157    7.9264959      2204118          147  0.007193656   -37.803809    195.00322 
   67200    94.869472    7.6047732      2204118          147  0.007193656   -38.883303    185.65027 
   67300    99.780872    7.7210794      2204118          147  0.007193656   -39.831818    196.32588 
   67400    104.38082    8.1657223      2204118          147  0.007193656   -38.394376    208.65031 
   67500    100.76217    8.5048817      2204118          147  0.007193656   -34.727373    203.75281 
   67600    97.545555    8.1896998      2204118          147  0.007193656   -36.004023    194.86321 
   67700    98.741326    7.9673102      2204118          147  0.007193656   -38.109503    195.58783 
   67800    101.60748    8.0073596      2204118          147  0.007193656   -38.908192    201.57265 
   67900    101.26425    8.1048584      2204118          147  0.007193656   -38.223435    201.44507 
   68000    98.162904     8.320537      2204118          147  0.007193656   -35.732701    196.59564 
   68100    98.440378    8.5707498      2204118          147  0.007193656   -34.121931    198.86313 
   68200     102.8316    8.4307203      2204118          147  0.007193656    -36.66724    206.71081 
   68300    102.19027    8.1142249      2204118          147  0.007193656   -38.612082    203.24809 
   68400      96.7265    8.0243908      2204118          147  0.007193656   -37.167884    191.76083 
   68500    96.809281    8.1874902      2204118          147  0.007193656   -35.911533    193.21311 
   68600    103.00352     8.368605      2204118          147  0.007193656   -36.766957    207.01798 
   68700    104.00857    8.3623652      2204118          147  0.007193656   -37.144888    209.01877 
   68800    97.824379    8.1556985      2204118          147  0.007193656   -36.525948    195.00119 
   68900    95.091406    8.2462624      2204118          147  0.007193656   -34.932764    190.12607 
   69000    101.18994    8.4889968      2204118          147  0.007193656   -35.285971    204.20666 
   69100    105.99855    8.4518277      2204118          147  0.007193656   -37.177816    213.69565 
   69200    99.994292    8.0725922      2204118          147  0.007193656   -37.694827    198.96798 
   69300    93.909883    7.8302835      2204118          147  0.007193656   -37.315829    184.94662 
   69400    98.202535    7.9539106      2204118          147  0.007193656   -37.930051    194.49209 
   69500    105.97824    8.1612792      2204118          147  0.007193656   -39.122886    211.70251 
   69600    102.56475    8.1725731      2204118          147  0.007193656   -37.771451    204.97501 
   69700    95.032792    7.9477102      2204118          147  0.007193656   -36.660691    188.25942 
   69800    96.399352    7.9162895      2204118          147  0.007193656     -37.1045    191.04994 
   69900    104.22747    8.0473867      2204118          147  0.007193656   -38.654582    208.02716 
   70000    104.41692    8.0003539      2204118          147  0.007193656   -38.770995    208.35913 
   70100    97.103147    7.5925838      2204118          147  0.007193656   -38.914424    190.90573 
   70200    95.274997    7.2793297      2204118          147  0.007193656   -40.340016    185.15334 
   70300    100.94537    7.4746362      2204118          147  0.007193656   -40.807107    198.10668 
   70400    105.07985     7.652874      2204118          147  0.007193656   -41.083458    207.61565 
   70500    100.34096    7.4736388      2204118          147  0.007193656   -41.002583     196.4807 
   70600    94.800217    7.4388718      2204118          147  0.007193656   -39.715957    184.65371 
   70700    97.790535    7.8461626      2204118          147  0.007193656   -38.319685    193.12735 
   70800    104.52155    8.5027789      2204118          147  0.007193656   -36.441359    210.93639 
   70900    103.63183    8.7522502      2204118          147  0.007193656   -34.822358    210.44964 
   71000    96.981502    8.5550692      2204118          147  0.007193656   -34.274481    195.25777 
   71100    95.535234     8.564234      2204118          147  0.007193656   -33.924854    192.18442 
   71200    102.19504     8.692003      2204118          147  0.007193656   -35.380619    206.49083 
   71300    104.89627    8.7639718      2204118          147  0.007193656   -35.768011    212.49662 
   71400      98.7302    8.5805388      2204118          147  0.007193656     -34.8762     198.7948 
   71500    95.068231    8.4312648      2204118          147  0.007193656   -34.644904    190.35908 
   71600    99.751196    8.5958866      2204118          147  0.007193656   -35.015065    201.07239 
   71700    104.87043    8.8352686      2204118          147  0.007193656    -34.82524    213.37823 
   71800    102.49752    8.3361938      2204118          147  0.007193656   -37.302857     205.2845 
   71900    95.679916    7.7864316      2204118          147  0.007193656   -38.527293    187.92441 
   72000    95.568256    7.7711519      2204118          147  0.007193656    -38.32463     187.8628 
   72100    103.20945    8.0118694      2204118          147  0.007193656   -39.125154    205.14717 
   72200    104.95435    8.2120919      2204118          147  0.007193656   -38.161541    210.24056 
   72300    97.891146    8.1233903      2204118          147  0.007193656   -36.220398    195.46476 
   72400    95.220604    7.9743131      2204118          147  0.007193656   -36.346466    189.01815 
   72500    100.76762    8.1181064      2204118          147  0.007193656   -37.206579    201.28652 
   72600    104.92632    8.2990843      2204118          147  0.007193656   -37.461866    210.87388 
   72700    99.652041    8.4100288      2204118          147  0.007193656   -34.991553    200.86123 
   72800    95.454777    8.4645108      2204118          147  0.007193656    -33.34289    192.57596 
   72900     99.50874    8.6406142      2204118          147  0.007193656   -33.787113    201.72651 
   73000    103.55219    9.1794507      2204118          147  0.007193656   -31.627202    213.45632 
   73100     100.6609     9.710789      2204118          147  0.007193656   -26.888445    211.35206 
   73200    98.502285    9.5044876      2204118          147  0.007193656   -27.519586      205.612 
   73300    100.03001     9.004313      2204118          147  0.007193656   -31.160384    205.58697 
   73400    101.36886    8.5124738      2204118          147  0.007193656    -34.44451    205.47156 
   73500    99.991731    8.0376069      2204118          147  0.007193656   -36.604121    200.05263 
   73600    98.648759    7.5727311      2204118          147  0.007193656   -38.856555    194.62169 
   73700    99.001708    7.4322439      2204118          147  0.007193656   -39.571862    194.74174 
   73800    100.00682    7.7517642      2204118          147  0.007193656   -37.196455      199.496 
   73900    101.65023    7.8588331      2204118          147  0.007193656   -36.788694    203.79332 
   74000    100.36153    7.9069926      2204118          147  0.007193656   -35.857658    201.67431 
   74100    97.713316    8.2048572      2204118          147  0.007193656   -32.681791    198.58249 
   74200    99.867951     8.338762      2204118          147  0.007193656   -32.496803    203.86699 
   74300    102.42701    8.4415524      2204118          147  0.007193656   -32.548429    209.87205 
   74400    100.74525    8.3703559      2204118          147  0.007193656   -32.286389    206.15375 
   74500    98.071003    8.1552015      2204118          147  0.007193656   -32.631254    199.47958 
   74600    99.333405    7.8509879      2204118          147  0.007193656   -35.050765    200.04788 
   74700    101.42915    7.7164273      2204118          147  0.007193656   -36.628384    203.43038 
   74800    99.902613    7.8983031      2204118          147  0.007193656   -34.749098    201.69673 
   74900    98.622027    8.0701071      2204118          147  0.007193656   -33.181192    200.23379 
   75000    99.971967    8.2635334      2204118          147  0.007193656   -32.429879    204.18009 
   75100    101.23186    8.5184402      2204118          147  0.007193656   -31.198463    208.39337 
   75200    99.518483    8.9540459      2204118          147  0.007193656    -27.52707    208.00961 
   75300    100.89656    8.7014388      2204118          147  0.007193656   -29.834989    208.96327 
   75400     101.9637    8.0089073      2204118          147  0.007193656   -35.115669    206.20827 
   75500    97.796127     7.806101      2204118          147  0.007193656   -35.042303    196.41797 
   75600    96.414503    8.0921125      2204118          147  0.007193656   -32.508099     195.6822 
   75700    102.52434    8.1739992      2204118          147  0.007193656   -34.168965    208.48188 
   75800    104.23644    8.1721957      2204118          147  0.007193656   -34.901276    211.80169 
   75900      97.2091    8.3342827      2204118          147  0.007193656   -31.242564    198.82835 
[...]
  381700    102.80583    8.7050024      2204118          147  0.007193656   -31.620566    211.69649 
  381800     98.87443    9.1772639      2204118          147  0.007193656   -27.069724    206.94264 
  381900    96.279535    9.1372201      2204118          147  0.007193656   -26.677766    201.19309 
  382000    101.77338    9.0271996      2204118          147  0.007193656   -29.524494    211.34898 
  382100    105.60429     9.037988      2204118          147  0.007193656   -30.705009    219.23534 
  382200     100.0502    8.5555356      2204118          147  0.007193656    -32.28683    204.50829 
  382300    98.278708    8.4445205      2204118          147  0.007193656   -32.541773    200.06066 
  382400    99.420469     8.729901      2204118          147  0.007193656   -31.108643    204.19606 
  382500    101.75355    9.1370397      2204118          147  0.007193656   -29.290254     211.5363 
  382600     102.2409    9.7111148      2204118          147  0.007193656   -25.501736    216.47826 
  382700    101.39224    9.7711329      2204118          147  0.007193656   -24.848341    215.12307 
  382800    98.110125    9.2106452      2204118          147  0.007193656    -27.61799    204.58544 
  382900    97.457961    8.7734192      2204118          147  0.007193656   -30.254576    200.40534 
  383000     101.6543    8.7385901      2204118          147  0.007193656    -31.75299    208.83866 
  383100    105.29215    8.9763889      2204118          147  0.007193656   -31.265502    217.93607 
  383200    97.944866    8.8812712      2204118          147  0.007193656   -29.351191    202.46111 
  383300    95.675582    8.7279914      2204118          147  0.007193656   -29.793901    196.64754 
  383400    100.04412    8.8663037      2204118          147  0.007193656   -30.438304    206.34243 
  383500     101.9268    9.0213363      2204118          147  0.007193656   -30.182443    211.05416 
  383600    99.344933     9.261869      2204118          147  0.007193656   -27.678784    207.44714 
  383700    95.656749    9.3125488      2204118          147  0.007193656   -26.305706    200.09117 
  383800    95.194139    9.5203096      2204118          147  0.007193656   -24.719166    200.58282 
  383900    102.85013    9.6967992      2204118          147  0.007193656   -26.299156    217.12274 
  384000     101.9348    9.9581757      2204118          147  0.007193656    -24.12155    217.13399 
  384100    97.134468    10.069113      2204118          147  0.007193656   -21.656009    208.23827 
  384200     97.89295    9.9970348      2204118          147  0.007193656   -22.364881    209.32455 
  384300    106.38327     10.09793      2204118          147  0.007193656   -24.290461    227.49355 
  384400    104.81919    9.4363887      2204118          147  0.007193656   -28.277958    219.80423 
  384500    100.23992    9.0467298      2204118          147  0.007193656   -29.062573    208.18157 
  384600    99.158639    8.6748506      2204118          147  0.007193656    -31.06784    203.61718 
  384700    99.258703    8.4897487      2204118          147  0.007193656   -32.231627    202.69022 
  384800    100.74382    8.5668072      2204118          147  0.007193656   -32.303727    206.13303 
  384900    103.09623    8.8793284      2204118          147  0.007193656   -31.148718    212.85565 
  385000    100.08372    9.3072081      2204118          147  0.007193656    -27.31339    209.56109 
  385100    96.440933    9.1315593      2204118          147  0.007193656   -27.832966    200.41988 
  385200    97.828907    9.3858701      2204118          147  0.007193656   -26.829669    204.70819 
  385300    104.03711    9.9402979      2204118          147  0.007193656    -25.32597    220.90522 
  385400    101.69339    10.113661      2204118          147  0.007193656   -23.379466    217.30471 
  385500    99.087214    9.8633806      2204118          147  0.007193656   -24.232367     210.2836 
  385600    99.414323    9.5697296      2204118          147  0.007193656   -26.377752    208.91241 
  385700    100.08092    9.5880609      2204118          147  0.007193656    -26.21358    210.65425 
  385800    103.92877    9.7589389      2204118          147  0.007193656   -25.998707    219.97607 
  385900    106.14376     9.635512      2204118          147  0.007193656   -27.324299    223.89286 
  386000    99.188969    9.0673209      2204118          147  0.007193656   -28.610805    206.14599 
  386100    97.285013    8.8778463      2204118          147  0.007193656   -28.884568    201.36602 
  386200    101.15123    8.7403462      2204118          147  0.007193656   -30.890852    208.51015 
  386300    104.09956    8.6482465      2204118          147  0.007193656   -32.218179    214.16083 
  386400    97.444061     8.257713      2204118          147  0.007193656   -32.497445    198.12957 
  386500    95.326231     8.129815      2204118          147  0.007193656   -32.453157    193.16146 
  386600    100.16638    8.2047352      2204118          147  0.007193656   -33.556485     203.5136 
  386700    101.48958    8.4052447      2204118          147  0.007193656   -32.535359    207.66645 
  386800    99.649967     8.560888      2204118          147  0.007193656   -30.950419    204.89745 
  386900    97.485017    8.6297772      2204118          147  0.007193656   -29.988904    200.73504 
  387000    97.112051     8.836967      2204118          147  0.007193656   -28.775931     201.0653 
  387100    101.26626     9.587133      2204118          147  0.007193656   -25.153272    214.51998 
  387200    103.06342    9.9469077      2204118          147  0.007193656   -23.427967    220.49874 
  387300    99.958257    9.6126723      2204118          147  0.007193656   -24.900033    211.67749 
  387400    96.350589    9.1757894      2204118          147  0.007193656   -26.704177    201.33485 
  387500    99.084857    9.1413953      2204118          147  0.007193656   -27.704402    206.80599 
  387600    106.81019     9.421175      2204118          147  0.007193656   -28.184869    224.60956 
  387700    102.57094    9.2685656      2204118          147  0.007193656   -27.568696    215.19243 
  387800     96.32779    8.8237582      2204118          147  0.007193656   -28.354995    199.63007 
  387900    100.86056    8.6522073      2204118          147  0.007193656   -30.919216    207.79384 
  388000    103.76165    8.4979612      2204118          147  0.007193656   -32.881733    212.69751 
  388100    99.209826    8.2507703      2204118          147  0.007193656   -33.046757    201.75941 
  388200    96.161044    8.2219867      2204118          147  0.007193656   -32.251096    195.33932 
  388300    100.09038    8.5967975      2204118          147  0.007193656   -31.076372    205.81386 
  388400    103.59857    8.8266863      2204118          147  0.007193656   -30.914688    214.27859 
  388500    101.06212    8.8826968      2204118          147  0.007193656   -29.987265    209.20284 
  388600    98.512692    9.1229698      2204118          147  0.007193656   -27.670652    205.48556 
  388700    99.730108    9.2342592      2204118          147  0.007193656   -27.676209    208.36134 
  388800    103.98565     9.642166      2204118          147  0.007193656   -26.509166    219.60023 
  388900    105.53868    10.036354      2204118          147  0.007193656   -24.559898    225.22516 
  389000    97.665329    9.6710532      2204118          147  0.007193656   -24.714767    206.43594 
  389100    96.827913    9.6954891      2204118          147  0.007193656   -24.265498    204.90324 
  389200    100.99267    9.9071772      2204118          147  0.007193656   -24.089803    214.93593 
  389300    103.54174    9.6126947      2204118          147  0.007193656   -26.897483     218.1613 
  389400    99.586493     8.963467      2204118          147  0.007193656   -29.911433    205.78621 
  389500    97.233614    8.7368956      2204118          147  0.007193656   -30.508871    199.62007 
  389600    99.791145    8.6314261      2204118          147  0.007193656   -32.199612    203.98239 
  389700    101.36372    8.8159219      2204118          147  0.007193656   -31.586866    208.31705 
  389800    99.917615    9.2036531      2204118          147  0.007193656   -28.614846    207.86649 
  389900    97.679764    9.5386567      2204118          147  0.007193656   -25.788969     205.3959 
  390000    99.814621    9.9806309      2204118          147  0.007193656   -23.504075     212.7335 
  390100    105.04709    9.9313973      2204118          147  0.007193656   -25.754462    222.86711 
  390200    100.93268    9.4895382      2204118          147  0.007193656   -27.463961    211.41978 
  390300    96.861384    9.4651319      2204118          147  0.007193656   -26.164263    203.08369 
  390400    98.984509    9.6691432      2204118          147  0.007193656   -25.360933    208.91196 
  390500    102.10899     9.670063      2204118          147  0.007193656   -26.426003     215.2418 
  390600    100.27352     9.738614      2204118          147  0.007193656   -25.176246    212.14743 
  390700    93.827374    9.2849876      2204118          147  0.007193656   -25.999126    196.06805 
  390800    95.029883    8.8637074      2204118          147  0.007193656   -29.131268    195.78196 
  390900    102.31247    8.7348506      2204118          147  0.007193656   -32.302312    209.84707 
  391000    101.09978    8.7106194      2204118          147  0.007193656   -31.700685    207.57855 
  391100    97.920662    8.7808911      2204118          147  0.007193656    -29.73684    202.01818 
  391200    99.899242    8.4597832      2204118          147  0.007193656   -32.453593    203.98425 
  391300    105.12918    8.3665393      2204118          147  0.007193656   -34.774217    214.04165 
  391400    101.76791    8.4589645      2204118          147  0.007193656   -32.852299    208.00825 
  391500    95.173821    8.5501829      2204118          147  0.007193656   -29.863944    195.38995 
  391600    98.243852    8.7847573      2204118          147  0.007193656   -29.273332     203.2466 
  391700    102.09698     8.788835      2204118          147  0.007193656   -30.576848    211.06252 
  391800    101.57467    8.4840655      2204118          147  0.007193656   -32.727032    207.67615 
  391900    98.404618    8.5028264      2204118          147  0.007193656   -31.750666    201.14976 
  392000    98.460801    8.7123725      2204118          147  0.007193656   -30.586819    202.44658 
  392100    103.34207    9.1845644      2204118          147  0.007193656    -29.33939    215.24682 
  392200    109.62587    9.7782786      2204118          147  0.007193656   -27.775106    231.68337 
  392300    102.92569    9.7559568      2204118          147  0.007193656   -26.034113    217.56662 
  392400    98.296849     9.803112      2204118          147  0.007193656   -24.410136    208.23523 
  392500    98.360816    9.7290276      2204118          147  0.007193656   -25.101235    207.69552 
  392600    102.64504    9.6722907      2204118          147  0.007193656   -26.909864    216.02665 
  392700    103.64424    9.5457538      2204118          147  0.007193656   -28.085259    217.21611 
  392800    96.051509    9.1651917      2204118          147  0.007193656   -27.871859    199.45932 
  392900      96.8264    9.0543974      2204118          147  0.007193656   -28.568824    200.59633 
  393000    101.85169    8.9018651      2204118          147  0.007193656   -31.003437    210.05539 
  393100    101.93357    8.6763469      2204118          147  0.007193656   -32.295039    208.95759 
  393200    99.212205    8.5439068      2204118          147  0.007193656   -31.952178    202.85962 
  393300     99.32805    8.3849109      2204118          147  0.007193656   -33.026059    202.05991 
  393400    99.950068    8.3655686      2204118          147  0.007193656   -33.494901    203.06324 
  393500    99.101279    8.7954521      2204118          147  0.007193656    -30.24332    204.30594 
  393600    100.83857    9.1510304      2204118          147  0.007193656   -28.589366    210.07166 
  393700    106.03163     9.585947      2204118          147  0.007193656   -27.589528    223.36223 
  393800    103.98937    9.6363868      2204118          147  0.007193656   -26.803138    219.31508 
  393900    96.917173    9.3399338      2204118          147  0.007193656   -26.743614    202.63638 
  394000    98.627667    9.3814136      2204118          147  0.007193656   -27.276022    206.15231 
  394100    102.80721    9.4536458      2204118          147  0.007193656   -28.399059    214.92127 
  394200    101.29445    9.5161051      2204118          147  0.007193656   -27.534329    212.20565 
  394300    94.650606    9.0399009      2204118          147  0.007193656   -28.850022    195.16555 
  394400    96.585329    8.9167971      2204118          147  0.007193656   -30.610712    197.98389 
  394500    99.833171    9.2241922      2204118          147  0.007193656   -29.778058    206.50342 
  394600    100.10627    9.5520681      2204118          147  0.007193656   -27.859466    209.06838 
  394700    99.846167    9.9307821      2204118          147  0.007193656   -25.369835     210.9424 
  394800    101.24164     10.33069      2204118          147  0.007193656   -23.245082    216.36991 
  394900    105.00006    10.559237      2204118          147  0.007193656   -23.022896    225.48737 
  395000    100.51096    10.404072      2204118          147  0.007193656   -22.511194    215.37444 
  395100      96.1334    10.199031      2204118          147  0.007193656   -22.204177    205.32082 
  395200    99.916495    9.9911484      2204118          147  0.007193656   -24.723323    211.75536 
  395300    102.61949    9.8529337      2204118          147  0.007193656   -26.235586    216.64045 
  395400    99.948766    9.5565574      2204118          147  0.007193656    -27.12137    209.43369 
  395500    92.224813    8.9189786      2204118          147  0.007193656   -28.743297      189.531 
  395600    93.960532    8.9608738      2204118          147  0.007193656   -28.860322    193.52201 
  395700    98.772481    9.1968747      2204118          147  0.007193656   -28.778422    204.99265 
  395800    102.32515    9.4535382      2204118          147  0.007193656   -28.241478    213.93792 
  395900    100.91752    9.6959964      2204118          147  0.007193656   -26.022002    212.82586 
  396000    96.900694    9.6799734      2204118          147  0.007193656   -24.707528    204.63347 
  396100    97.440329    9.4915794      2204118          147  0.007193656   -26.064506    204.55368 
  396200    104.94803    9.5690418      2204118          147  0.007193656   -27.943589    220.44355 
  396300    103.00909    9.5616172      2204118          147  0.007193656   -27.138762    216.65935 
  396400    97.630916    9.5087317      2204118          147  0.007193656   -25.526815    205.54244 
  396500    98.248766    9.6412796      2204118          147  0.007193656   -24.490765     208.0408 
  396600    101.45218    9.4958377      2204118          147  0.007193656   -26.232748    213.88053 
  396700    102.49826    8.8707889      2204118          147  0.007193656   -30.599111       211.99 
  396800    95.781881    8.1913111      2204118          147  0.007193656   -32.691747    194.00128 
  396900    94.875379    8.3139652      2204118          147  0.007193656   -31.170104    193.37745 
  397000    98.797092    8.6728258      2204118          147  0.007193656   -29.780342    204.04898 
  397100    101.86361    8.9809427      2204118          147  0.007193656   -28.492528    212.59451 
  397200    101.43959    9.0256196      2204118          147  0.007193656   -27.893684    212.18981 
  397300     97.46681    8.5270557      2204118          147  0.007193656    -30.17934    200.50152 
  397400     94.25151    8.3720843      2204118          147  0.007193656   -30.224227    192.84678 
  397500     101.0365    9.0924422      2204118          147  0.007193656   -27.619458    211.51002 
  397600    102.36981     9.352625      2204118          147  0.007193656    -26.39011    215.89499 
  397700    99.833057    9.0554976      2204118          147  0.007193656   -27.753467    208.52774 
  397800    97.282914    8.8078798      2204118          147  0.007193656   -28.661654    201.58397 
  397900    99.531181     8.802602      2204118          147  0.007193656   -29.559138     206.0076 
  398000    106.00422    9.1061815      2204118          147  0.007193656   -29.749804    221.13709 
  398100    102.54792    8.9003667      2204118          147  0.007193656   -30.141645      212.565 
  398200     98.53708    8.5081648      2204118          147  0.007193656   -31.695432     201.5185 
  398300    99.040865    8.6353745      2204118          147  0.007193656   -31.097596    203.30868 
  398400    101.25887     8.889425      2204118          147  0.007193656   -30.239523    209.41623 
  398500    102.47556    9.0828552      2204118          147  0.007193656   -29.418608    213.11678 
  398600    98.324738    8.9773903      2204118          147  0.007193656   -28.822659    203.88871 
  398700    94.770059    8.8120498      2204118          147  0.007193656   -28.753244    195.54504 
  398800    100.28902    9.0646768      2204118          147  0.007193656   -28.709137    208.65122 
  398900    103.26354    9.0111023      2204118          147  0.007193656   -29.807675    214.59268 
  399000    101.50926    8.4079587      2204118          147  0.007193656   -33.074169    207.17421 
  399100    99.317203    7.7927862      2204118          147  0.007193656   -36.330375    198.72992 
  399200    98.743869    7.6066145      2204118          147  0.007193656   -37.151603    196.55175 
  399300    100.02627    7.7767106      2204118          147  0.007193656   -36.293515    200.44498 
  399400    107.31557    8.3840454      2204118          147  0.007193656   -34.561975    219.42857 
  399500    105.22776    8.5953103      2204118          147  0.007193656   -32.525855    216.52334 
  399600    98.900979    8.5550996      2204118          147  0.007193656   -30.814288    203.26091 
  399700    98.179165    8.7382674      2204118          147  0.007193656   -29.456021    202.91081 
  399800    100.68985    9.2092021      2204118          147  0.007193656   -27.067917    211.24111 
  399900    104.09048    9.4540476      2204118          147  0.007193656   -26.491157    219.86636 
  400000    100.02192      8.92922      2204118          147  0.007193656   -28.888868    207.83934 
  400100    95.397482    8.5806724      2204118          147  0.007193656   -29.832666    195.95058 
Loop time of 23.8163 on 1 procs for 400000 steps with 795 atoms

Performance: 362.776 ns/day, 0.066 hours/ns, 16795.186 timesteps/s
96.0% CPU use with 1 MPI tasks x no OpenMP threads

MPI task timing breakdown:
Section |  min time  |  avg time  |  max time  |%varavg| %total
---------------------------------------------------------------
Pair    | 12.32      | 12.32      | 12.32      |   0.0 | 51.73
Neigh   | 1.8621     | 1.8621     | 1.8621     |   0.0 |  7.82
Comm    | 0.8018     | 0.8018     | 0.8018     |   0.0 |  3.37
Output  | 1.6778     | 1.6778     | 1.6778     |   0.0 |  7.04
Modify  | 6.5329     | 6.5329     | 6.5329     |   0.0 | 27.43
Other   |            | 0.6219     |            |       |  2.61

Nlocal:            795 ave         795 max         795 min
Histogram: 1 0 0 0 0 0 0 0 0 0
Nghost:            145 ave         145 max         145 min
Histogram: 1 0 0 0 0 0 0 0 0 0
Neighs:           1587 ave        1587 max        1587 min
Histogram: 1 0 0 0 0 0 0 0 0 0

Total # of neighbors = 1587
Ave neighs/atom = 1.9962264
Neighbor list builds = 5731
Dangerous builds = 7

write_data graphene_single_layer_LJ_795C_after_temp_100K.data
System init for write_data ...
  generated 0 of 0 mixed pair_coeff terms from geometric mixing rule
Total wall time: 0:00:24
