# System definition
read_data graphene_single_layer_x-45_y-45_795_C.data
Reading data file ...
  orthogonal box = (-51 -51 -51) to (96 96 51)
  1 by 1 by 1 MPI processor grid
  reading atoms ...
  795 atoms
  read_data CPU = 0.011 seconds
pair_style lj/cut 6
pair_coeff      1 1 0.066047 3.4

# Virtual force wall to keep the cylinder shape
#region myCylinder cylinder z 0. 0. 20.3 -22.079997 505.920003 units box
#fix wall all wall/region myCylinder lj93 1.0 1.0 2.5

# Minimization
timestep 0.25
thermo 100
thermo_style custom step temp press vol lx density pe etotal
dump 2 all custom 1000 graphene_single_layer_LJ_795C_after_temp_1200K.lammpstrj id type x y z
min_style cg
minimize 1.0e-6 1.0e-6 100 1000
WARNING: Using 'neigh_modify every 1 delay 0 check yes' setting during minimization (../min.cpp:187)
  generated 0 of 0 mixed pair_coeff terms from geometric mixing rule
Neighbor list info ...
  update every 1 steps, delay 0 steps, check yes
  max neighbors/atom: 10000, page size: 100000
  master list distance cutoff = 6.4
  ghost atom cutoff = 6.4
  binsize = 3.2, bins = 46 46 32
  1 neighbor lists, perpetual/occasional/extra = 1 0 0
  (1) pair lj/cut, perpetual
      attributes: half, newton on
      pair build: half/bin/atomonly/newton
      stencil: half/bin/3d
      bin: standard
Per MPI rank memory allocation (min/avg/max) = 5.96 | 5.96 | 5.96 Mbytes
Step Temp Press Volume Lx Density PotEng TotEng 
       0            0    1335313.5      2204118          147  0.007193656     10699602     10699602 
     100            0     61841.43      2204118          147  0.007193656    488621.59    488621.59 
Loop time of 0.0579325 on 1 procs for 100 steps with 795 atoms

100.0% CPU use with 1 MPI tasks x no OpenMP threads

Minimization stats:
  Stopping criterion = max iterations
  Energy initial, next-to-last, final = 
      10699602.3573369   495470.853828546   488621.590421788
  Force two-norm initial, final = 694694.42 29375.63
  Force max component initial, final = 79169.705 9280.0147
  Final line search alpha, max atom move = 3.8811533e-05 0.36017159
  Iterations, force evaluations = 100 117

MPI task timing breakdown:
Section |  min time  |  avg time  |  max time  |%varavg| %total
---------------------------------------------------------------
Pair    | 0.03764    | 0.03764    | 0.03764    |   0.0 | 64.97
Neigh   | 0.01662    | 0.01662    | 0.01662    |   0.0 | 28.69
Comm    | 0.0003541  | 0.0003541  | 0.0003541  |   0.0 |  0.61
Output  | 7.83e-05   | 7.83e-05   | 7.83e-05   |   0.0 |  0.14
Modify  | 0          | 0          | 0          |   0.0 |  0.00
Other   |            | 0.00324    |            |       |  5.59

Nlocal:            795 ave         795 max         795 min
Histogram: 1 0 0 0 0 0 0 0 0 0
Nghost:              0 ave           0 max           0 min
Histogram: 1 0 0 0 0 0 0 0 0 0
Neighs:          13073 ave       13073 max       13073 min
Histogram: 1 0 0 0 0 0 0 0 0 0

Total # of neighbors = 13073
Ave neighs/atom = 16.444025
Neighbor list builds = 35
Dangerous builds = 0
#timestep 0.25
fix 1 all nvt temp 1200.0 1200.0 $(100.0*dt)
fix 1 all nvt temp 1200.0 1200.0 25
run 400000
  generated 0 of 0 mixed pair_coeff terms from geometric mixing rule
Per MPI rank memory allocation (min/avg/max) = 4.835 | 4.835 | 4.835 Mbytes
Step Temp Press Volume Lx Density PotEng TotEng 
     100            0     61841.43      2204118          147  0.007193656    488621.59    488621.59 
     200    33428.383    20423.191      2204118          147  0.007193656     146207.5    225324.57 
     300    10275.691    8753.5666      2204118          147  0.007193656    63117.507    87437.634 
     400    4979.3122    5309.3025      2204118          147  0.007193656    38192.802    49977.655 
     500    3116.5116     3716.812      2204118          147  0.007193656      26519.2    33895.245 
     600    2252.8029    2794.0041      2204118          147  0.007193656    19710.151    25042.002 
     700    1780.9184    2190.0347      2204118          147  0.007193656    15243.627    19458.639 
     800     1501.654    1765.1621      2204118          147  0.007193656    12099.993    15654.052 
     900    1335.3226     1449.764      2204118          147  0.007193656    9764.7478     12925.14 
    1000    1239.8106    1207.1689      2204118          147  0.007193656    7967.4213    10901.759 
    1100    1196.4725    1013.7143      2204118          147  0.007193656    6530.7157    9362.4828 
    1200    1181.2674    856.70278      2204118          147  0.007193656    5365.3874    8161.1675 
    1300    1180.3642    726.99616      2204118          147  0.007193656    4405.3185     7198.961 
    1400    1179.0382    619.90704      2204118          147  0.007193656    3619.5623    6410.0665 
    1500    1179.6928    530.68875      2204118          147  0.007193656    2970.1841    5762.2375 
    1600    1183.8468     455.7188      2204118          147  0.007193656    2428.2341     5230.119 
    1700    1186.9764    392.56518      2204118          147  0.007193656    1976.7043    4785.9964 
    1800    1186.8414    339.52101      2204118          147  0.007193656    1602.8907    4411.8631 
    1900    1187.5301    295.01345      2204118          147  0.007193656    1293.0816     4103.684 
    2000    1191.0633    257.62975      2204118          147  0.007193656    1035.5943    3854.5589 
    2100    1194.2917    226.05198      2204118          147  0.007193656    821.37622    3647.9818 
    2200    1194.1645    199.25842      2204118          147  0.007193656    643.47722    3469.7819 
    2300    1192.8231    176.66746      2204118          147  0.007193656    496.51485    3319.6447 
    2400    1194.3322    157.75502      2204118          147  0.007193656    374.98595    3201.6875 
    2500    1197.7511    141.83193      2204118          147  0.007193656     274.1196    3108.9128 
    2600    1198.7338     128.1909      2204118          147  0.007193656    190.40158    3027.5206 
    2700    1196.5732    116.49648      2204118          147  0.007193656    121.63262    2953.6379 
    2800    1195.7488    106.67226      2204118          147  0.007193656    65.667322    2895.7215 
    2900    1198.3953    98.502564      2204118          147  0.007193656    19.978972    2856.2969 
    3000    1200.6145    91.575889      2204118          147  0.007193656   -17.096555    2824.4737 
    3100    1199.1585    85.584618      2204118          147  0.007193656   -46.447394    2791.6769 
    3200    1196.9574     80.49114      2204118          147  0.007193656   -69.553956    2763.3608 
    3300    1198.0972    76.358815      2204118          147  0.007193656   -87.285218    2748.3271 
    3400    1200.9565    72.947143      2204118          147  0.007193656   -101.17019    2741.2095 
    3500    1200.9479    69.905878      2204118          147  0.007193656    -112.3871    2729.9721 
    3600    1198.2908    67.188747      2204118          147  0.007193656   -121.11131    2714.9592 
    3700    1197.6518    64.961937      2204118          147  0.007193656   -127.65924    2706.8989 
    3800    1200.2613    63.225931      2204118          147  0.007193656   -132.36569    2708.3685 
    3900    1201.8491    61.721667      2204118          147  0.007193656   -135.52705    2708.9652 
    4000    1199.8311    60.284036      2204118          147  0.007193656   -137.39112    2702.3248 
    4100    1197.6951    59.053877      2204118          147  0.007193656    -138.1521    2696.5086 
    4200    1199.1068      58.1861      2204118          147  0.007193656   -137.94569    2700.0561 
    4300    1201.7487    57.541368      2204118          147  0.007193656   -136.94376    2707.3107 
    4400    1201.2083    56.876648      2204118          147  0.007193656   -135.36733    2707.6083 
    4500    1198.4423    56.226404      2204118          147  0.007193656   -133.22447    2703.2046 
    4600    1198.1601    55.798061      2204118          147  0.007193656    -130.7141    2705.0472 
    4700    1200.8777    55.604503      2204118          147  0.007193656   -127.86236    2714.3307 
    4800    1202.0408    55.405146      2204118          147  0.007193656   -124.80708    2720.1387 
    4900     1199.699    55.094259      2204118          147  0.007193656   -121.59825    2717.8051 
    5000    1197.8273     54.85802      2204118          147  0.007193656   -118.27798    2716.6955 
    5100    1199.6004    54.842114      2204118          147  0.007193656   -114.91325    2724.2568 
    5200    1202.0494    54.897658      2204118          147  0.007193656   -111.47091    2733.4952 
    5300    1201.0421    54.810017      2204118          147  0.007193656   -108.08333    2734.4989 
    5400    1198.2845    54.661228      2204118          147  0.007193656   -104.72573    2731.3298 
    5500    1198.4369    54.677548      2204118          147  0.007193656   -101.38903    2735.0273 
    5600     1201.254    54.840553      2204118          147  0.007193656   -98.133085    2744.9506 
    5700    1201.9859    54.917298      2204118          147  0.007193656   -94.918197    2749.8977 
    5800    1199.3914    54.843251      2204118          147  0.007193656   -91.774946    2746.9004 
    5900    1197.8545    54.831336      2204118          147  0.007193656   -88.712086    2746.3259 
    6000    1199.9719    55.005563      2204118          147  0.007193656    -85.75744    2754.2919 
    6100      1202.18    55.189478      2204118          147  0.007193656   -82.911453     2762.364 
    6200    1200.7425    55.198722      2204118          147  0.007193656   -80.170914    2761.7021 
    6300    1198.0866    55.153148      2204118          147  0.007193656   -77.507687    2758.0795 
    6400    1198.6947     55.27281      2204118          147  0.007193656   -74.904826    2762.1215 
    6500    1201.5489    55.502961      2204118          147  0.007193656   -72.427543    2771.3542 
    6600    1201.8282    55.605542      2204118          147  0.007193656   -70.088181    2774.3545 
    6700     1199.053    55.560481      2204118          147  0.007193656   -67.820353    2770.0541 
    6800    1197.9091    55.595757      2204118          147  0.007193656   -65.648874    2769.5183 
    6900    1200.3283    55.806892      2204118          147  0.007193656   -63.552925      2777.34 
    7000    1202.2342     55.99306      2204118          147  0.007193656   -61.536596     2783.867 
    7100    1200.3986    55.995811      2204118          147  0.007193656   -59.592767    2781.4663 
    7200    1197.9233     55.96659      2204118          147  0.007193656   -57.728146    2777.4727 
    7300    1198.9942    56.105787      2204118          147  0.007193656    -56.02609    2781.7093 
    7400    1201.8187    56.334745      2204118          147  0.007193656   -54.464744    2789.9556 
    7500    1200.3151    56.830829      2204118          147  0.007193656   -49.674347    2791.1872 
    7600    1197.3979     57.80385      2204118          147  0.007193656   -41.064088    2792.8932 
    7700    1199.8026    58.769124      2204118          147  0.007193656   -35.003387    2804.6451 
    7800    1199.1761    60.796269      2204118          147  0.007193656    -20.55695    2817.6089 
    7900    1200.9103    61.991296      2204118          147  0.007193656   -13.803076    2828.4673 
    8000    1191.3183    66.496399      2204118          147  0.007193656    21.920988    2841.4894 
    8100    1202.0576    69.839715      2204118          147  0.007193656    41.117356     2886.103 
    8200    1209.4712     72.58018      2204118          147  0.007193656    57.530465    2920.0623 
    8300    1202.6252      74.1605      2204118          147  0.007193656     70.73796    2917.0671 
    8400    1205.2233    72.200596      2204118          147  0.007193656    54.148148    2906.6262 
    8500    1190.8312    74.069067      2204118          147  0.007193656    72.658339    2891.0738 
    8600    1186.4054    78.820841      2204118          147  0.007193656    108.50729     2916.448 
    8700    1215.9279    81.195784      2204118          147  0.007193656    114.09174    2991.9052 
    8800    1221.3972    80.646651      2204118          147  0.007193656     107.2149    2997.9729 
    8900     1188.859    77.244265      2204118          147  0.007193656    92.160183    2905.9078 
    9000    1166.6683    76.785032      2204118          147  0.007193656    95.433048    2856.6606 
    9100    1187.8687    82.347178      2204118          147  0.007193656    128.26107    2939.6651 
    9200    1242.1556    84.096445      2204118          147  0.007193656    119.70561    3059.5938 
    9300    1222.2442     83.94288      2204118          147  0.007193656    124.44433     3017.207 
    9400    1154.8594    85.850376      2204118          147  0.007193656    161.26841    2894.5472 
    9500    1174.1454    86.098991      2204118          147  0.007193656    153.75973    2932.6839 
    9600    1241.0081    87.289763      2204118          147  0.007193656    137.94736    3075.1196 
    9700    1235.1678     86.47091      2204118          147  0.007193656    133.69734    3057.0471 
    9800    1171.6567    82.484403      2204118          147  0.007193656    126.84248    2899.8764 
    9900    1152.4357    81.784545      2204118          147  0.007193656    129.33096    2856.8732 
   10000     1206.199    85.558475      2204118          147  0.007193656    136.54987    2991.3374 
   10100    1246.0886    90.525645      2204118          147  0.007193656    157.53027     3106.727 
   10200    1222.9433    85.302563      2204118          147  0.007193656    126.25163    3020.6687 
   10300    1152.6048    80.738872      2204118          147  0.007193656    117.23141    2845.1739 
   10400    1156.7757    81.424149      2204118          147  0.007193656    118.77641    2856.5906 
   10500    1217.1275    91.538723      2204118          147  0.007193656    170.75596    3051.4086 
   10600    1272.1958    91.875294      2204118          147  0.007193656    151.22377      3162.21 
   10700    1199.0763    87.847649      2204118          147  0.007193656    146.62637    2984.5561 
   10800    1125.4517    86.045742      2204118          147  0.007193656    159.14626    2822.8238 
   10900    1181.1537    87.411202      2204118          147  0.007193656    148.76248    2944.2737 
   11000    1272.7591     89.97934      2204118          147  0.007193656    134.30633    3146.6257 
   11100    1231.2818    90.247225      2204118          147  0.007193656    151.03879    3065.1911 
   11200    1140.6035    87.545909      2204118          147  0.007193656    163.91113    2863.4496 
   11300    1165.6531    83.157055      2204118          147  0.007193656    121.34478    2880.1697 
   11400    1233.1597    88.446329      2204118          147  0.007193656    135.96551    3054.5625 
   11500    1239.7067     92.95531      2204118          147  0.007193656    165.75858    3099.8507 
   11600    1200.2116    88.199992      2204118          147  0.007193656    142.64481    2983.2615 
   11700    1123.2229    98.226815      2204118          147  0.007193656    246.99576    2905.3983 
   11800     1210.889    95.466492      2204118          147  0.007193656     190.1992    3056.0867 
   11900    1257.6281    101.83782      2204118          147  0.007193656    218.77729    3195.2852 
   12000    1204.8013    106.05817      2204118          147  0.007193656    268.85304    3120.3324 
   12100    1158.8377    102.39418      2204118          147  0.007193656    257.47836    3000.1727 
   12200    1172.6311     102.2035      2204118          147  0.007193656    249.08216    3024.4223 
   12300    1237.7618     109.1607      2204118          147  0.007193656    276.00902     3205.498 
   12400    1262.0673    111.43096      2204118          147  0.007193656    283.15876    3270.1732 
   12500    1184.7037     107.5139      2204118          147  0.007193656    283.79204     3087.705 
   12600    1144.3682    103.85502      2204118          147  0.007193656    269.73985    2978.1883 
   12700    1186.6198    108.56328      2204118          147  0.007193656    286.68266    3095.1307 
   12800    1283.3967    109.68131      2204118          147  0.007193656    258.73668    3296.2328 
   12900    1241.5016    113.66689      2204118          147  0.007193656     305.8465    3244.1868 
   13000    1132.6677    115.57924      2204118          147  0.007193656    357.99671     3038.753 
   13100     1153.378    117.58991      2204118          147  0.007193656    364.55656    3094.3291 
   13200     1281.576    117.44253      2204118          147  0.007193656    316.38963    3349.5764 
   13300    1284.1402    112.62804      2204118          147  0.007193656    279.10014    3318.3558 
   13400    1133.9803    107.33119      2204118          147  0.007193656    293.74924    2977.6122 
   13500    1112.8313    106.15413      2204118          147  0.007193656    293.05692    2926.8651 
   13600    1199.8529    124.65328      2204118          147  0.007193656     405.2542    3245.0218 
   13700    1302.7344    118.56347      2204118          147  0.007193656    316.49465    3399.7584 
   13800    1155.2799    117.67158      2204118          147  0.007193656    359.77958    3094.0535 
   13900    1129.1204    107.86419      2204118          147  0.007193656    294.78759    2967.1483 
   14000    1208.4055    109.33853      2204118          147  0.007193656    276.60326     3136.613 
   14100     1231.592    124.80265      2204118          147  0.007193656    384.18469    3299.0713 
   14200     1274.589    110.87835      2204118          147  0.007193656    260.53564    3277.1859 
   14300     1131.727     117.3408      2204118          147  0.007193656    363.47015         3042 
   14400    1175.9012    105.51266      2204118          147  0.007193656    257.97915    3041.0588 
   14500    1223.0678    114.74663      2204118          147  0.007193656    310.75411    3205.4659 
   14600    1247.0412    119.52193      2204118          147  0.007193656    336.78268    3288.2338 
   14700     1210.321    118.53958      2204118          147  0.007193656    343.63609    3208.1793 
   14800     1170.043    114.52895      2204118          147  0.007193656    330.40385    3099.6185 
   14900    1186.1875    106.18882      2204118          147  0.007193656    262.19468    3069.6196 
   15000    1181.2154     113.0861      2204118          147  0.007193656    315.78348    3111.4405 
   15100    1217.2042    120.49697      2204118          147  0.007193656    358.08979    3238.9238 
   15200    1256.5099    115.02974      2204118          147  0.007193656    302.52879    3276.3902 
   15300     1200.972    104.97374      2204118          147  0.007193656    246.14591    3088.5623 
   15400    1124.5995    105.79519      2204118          147  0.007193656    278.96316     2940.624 
   15500    1163.8858    112.24213      2204118          147  0.007193656    311.11779    3065.7598 
   15600    1280.0517     116.2295      2204118          147  0.007193656    299.04068      3328.62 
   15700    1249.3754    120.34666      2204118          147  0.007193656    343.10457    3300.0803 
   15800    1180.7472    106.02582      2204118          147  0.007193656    260.36371    3054.9128 
   15900    1089.9396    116.83268      2204118          147  0.007193656    376.09687    2955.7258 
   16000    1241.4088    112.78788      2204118          147  0.007193656    289.44828     3227.569 
   16100    1297.5692    116.40956      2204118          147  0.007193656    298.84979    3369.8887 
   16200    1209.1761    103.73635      2204118          147  0.007193656    238.32449    3100.1581 
   16300    1091.5413    97.579077      2204118          147  0.007193656    236.03911    2819.4589 
   16400    1150.2697    98.722244      2204118          147  0.007193656    220.98453    2943.4005 
   16500    1300.9571    108.28646      2204118          147  0.007193656    237.87185    3316.9293 
   16600    1267.5541    115.44662      2204118          147  0.007193656    304.95705    3304.9575 
   16700    1151.0082    102.09664      2204118          147  0.007193656    244.70198    2968.8659 
   16800    1086.1379    106.41156      2204118          147  0.007193656    301.59179     2872.223 
   16900    1238.0144    106.93818      2204118          147  0.007193656    249.98956    3180.0764 
   17000    1311.8145    110.74901      2204118          147  0.007193656    253.10744    3357.8616 
   17100     1196.663    101.76538      2204118          147  0.007193656    227.82664    3060.0447 
   17200    1091.0918    97.857178      2204118          147  0.007193656    237.90397    2820.2598 
   17300    1174.6869    98.212067      2204118          147  0.007193656    209.62063    2989.8262 
   17400    1273.2251    112.94959      2204118          147  0.007193656    282.85621    3296.2784 
   17500    1279.1813    112.22482      2204118          147  0.007193656    274.19062    3301.7098 
   17600    1170.6429    100.09216      2204118          147  0.007193656    224.82666    2995.4611 
   17700    1114.5996     93.31434      2204118          147  0.007193656    195.74582     2833.739 
   17800    1167.8808     102.9857      2204118          147  0.007193656    249.13068    3013.2279 
   17900    1303.3105    106.41551      2204118          147  0.007193656     225.1383    3309.7656 
   18000    1231.1039    111.02639      2204118          147  0.007193656     286.9341    3200.6656 
   18100    1138.8027    98.298796      2204118          147  0.007193656    223.59342    2918.8698 
   18200    1122.6575    98.359303      2204118          147  0.007193656     230.2223    2887.2868 
   18300    1225.6761    107.63248      2204118          147  0.007193656    264.86408     3165.749 
   18400    1300.5465    107.65161      2204118          147  0.007193656     238.3368    3316.4223 
   18500      1199.81    99.554165      2204118          147  0.007193656    215.72186    3055.3879 
   18600    1120.5402    89.613723      2204118          147  0.007193656    171.38161     2823.435 
   18700    1154.0719     92.97477      2204118          147  0.007193656    184.99914    2916.4141 
   18800    1272.1628    97.914095      2204118          147  0.007193656    178.30567    3189.2138 
   18900    1262.9555    99.448544      2204118          147  0.007193656    194.23879    3183.3554 
   19000    1157.2117    91.130429      2204118          147  0.007193656    170.73962    2909.5857 
   19100    1114.4086    89.338052      2204118          147  0.007193656    173.02722    2810.5684 
   19200    1211.7702    93.463719      2204118          147  0.007193656    167.27931    3035.2523 
   19300    1270.2663    106.17885      2204118          147  0.007193656    241.91109    3248.3306 
   19400    1260.1851    92.476326      2204118          147  0.007193656    144.08822     3126.648 
   19500    1120.1759    86.111727      2204118          147  0.007193656    148.14724    2799.3384 
   19600    1114.9881    87.698646      2204118          147  0.007193656    161.80323    2800.7161 
   19700    1254.9707    94.791577      2204118          147  0.007193656    164.37189    3134.5904 
   19800    1309.4642    95.881544      2204118          147  0.007193656    153.30034     3252.492 
   19900    1170.3027    90.161539      2204118          147  0.007193656    161.46878    2931.2981 
   20000    1085.4843    88.644655      2204118          147  0.007193656    181.43109    2750.5154 
   20100    1202.1772     88.75516      2204118          147  0.007193656    138.30432    2983.5731 
   20200    1285.8094    101.27847      2204118          147  0.007193656    199.65573    3242.8621 
   20300    1251.3151    97.484423      2204118          147  0.007193656    182.22406    3143.7906 
   20400    1129.9107    91.364923      2204118          147  0.007193656    180.59143    2854.8224 
   20500    1133.7985    89.489969      2204118          147  0.007193656    166.44285    2849.8753 
   20600    1258.3669    91.072212      2204118          147  0.007193656    133.12568     3111.382 
   20700    1246.3383    101.62901      2204118          147  0.007193656    216.02335    3165.8111 
   20800    1190.2884    96.163342      2204118          147  0.007193656    195.02428     3012.155 
   20900    1155.4561    91.397374      2204118          147  0.007193656    173.42567    2908.1166 
   21000     1190.866      92.1897      2204118          147  0.007193656    168.52034    2987.0182 
   21100    1237.5782    95.386697      2204118          147  0.007193656    177.71019    3106.7646 
   21200    1229.1901     92.43072      2204118          147  0.007193656    159.26106    3068.4629 
   21300    1163.1372    92.776993      2204118          147  0.007193656    186.20022    2939.0706 
   21400    1169.0809    93.610131      2204118          147  0.007193656    189.86778    2956.8053 
   21500    1231.2091    95.600625      2204118          147  0.007193656    181.47826    3095.4586 
   21600    1227.4874    99.008565      2204118          147  0.007193656    207.13194     3112.304 
   21700    1182.9697    97.046468      2204118          147  0.007193656    208.64198     3008.451 
   21800    1178.0387    93.091132      2204118          147  0.007193656    180.58593    2968.7245 
   21900    1199.8831    95.749991      2204118          147  0.007193656    192.73927    3032.5783 
   22000    1233.1702    95.517064      2204118          147  0.007193656    179.04719     3097.669 
   22100    1205.9902    93.501963      2204118          147  0.007193656    174.22107    3028.5142 
   22200     1162.876    93.453888      2204118          147  0.007193656    190.38783      2942.64 
   22300    1198.0649    91.537419      2204118          147  0.007193656    162.11112    2997.6469 
   22400    1214.3626    98.607736      2204118          147  0.007193656    207.00648    3081.1153 
   22500    1224.6266    98.876646      2204118          147  0.007193656    204.10125    3102.5024 
   22600     1204.687    95.217336      2204118          147  0.007193656    184.80921    3036.0181 
   22700    1176.4132    93.137334      2204118          147  0.007193656    181.52494    2965.8164 
   22800    1197.5811    88.868367      2204118          147  0.007193656    143.98279    2978.3737 
   22900    1213.0079    88.717631      2204118          147  0.007193656    138.46473    3009.3672 
   23000    1191.5658    92.717425      2204118          147  0.007193656     175.5412    2995.6952 
   23100    1193.8684    94.414405      2204118          147  0.007193656    185.93958    3011.5433 
   23200    1224.9524    93.720585      2204118          147  0.007193656    170.33424    3069.5065 
   23300    1213.9696    90.954771      2204118          147  0.007193656     154.2333    3027.4118 
   23400    1164.8491    91.004099      2204118          147  0.007193656    172.18337    2929.1053 
   23500    1174.3023    93.227422      2204118          147  0.007193656     184.9207    2964.2162 
   23600    1209.4508    100.92981      2204118          147  0.007193656    228.51426     3090.998 
   23700    1254.3304    96.852738      2204118          147  0.007193656    180.31502    3149.0179 
   23800    1188.2445    95.433565      2204118          147  0.007193656    194.69034    3006.9838 
   23900    1157.2994    92.531802      2204118          147  0.007193656    184.30445    2923.3582 
   24000    1209.0064    92.923256      2204118          147  0.007193656    168.48198    3029.9139 
   24100    1233.3373    97.961891      2204118          147  0.007193656    195.43932    3114.4567 
   24200    1189.2622    103.47432      2204118          147  0.007193656    249.82955    3064.5315 
   24300    1186.1941    100.76892      2204118          147  0.007193656    228.54317    3035.9836 
   24400    1184.8546    105.79495      2204118          147  0.007193656     268.4301    3072.7002 
   24500    1223.5696    101.69107      2204118          147  0.007193656    225.51453    3121.4141 
   24600    1211.8258    94.339171      2204118          147  0.007193656      175.323    3043.4276 
   24700    1147.5075    96.289069      2204118          147  0.007193656    214.22298    2930.1014 
   24800    1197.1544    93.984834      2204118          147  0.007193656    177.55763    3010.9386 
   24900    1230.7838    103.16817      2204118          147  0.007193656    234.92199    3147.8957 
   25000    1219.5693    106.08237      2204118          147  0.007193656    259.49201    3145.9237 
   25100    1199.4251    96.468596      2204118          147  0.007193656    192.86334    3031.6186 
   25200    1151.5732    99.557157      2204118          147  0.007193656    233.66439    2959.1654 
   25300      1194.42    101.62468      2204118          147  0.007193656    233.16844    3060.0777 
   25400     1246.093    103.21992      2204118          147  0.007193656     227.1429      3176.35 
   25500    1220.3099    101.77569      2204118          147  0.007193656    227.24363    3115.4282 
   25600    1149.8368    102.49521      2204118          147  0.007193656    257.66779    2979.0593 
   25700    1175.7189    102.64147      2204118          147  0.007193656    250.26101    3032.9091 
   25800    1266.1552    95.670018      2204118          147  0.007193656    166.34383    3163.0334 
   25900    1198.5775    97.128749      2204118          147  0.007193656    201.48987     3038.239 
   26000    1139.0894    97.351288      2204118          147  0.007193656    222.95346    2918.9083 
   26100    1186.8522    101.65671      2204118          147  0.007193656    237.02715    3046.0253 
   26200    1244.1324    110.05733      2204118          147  0.007193656    279.54997    3224.1166 
   26300    1250.0164    102.10894      2204118          147  0.007193656    216.58987    3175.0826 
   26400    1144.4006    100.13992      2204118          147  0.007193656     240.0627     2948.588 
   26500    1135.9509    101.61512      2204118          147  0.007193656    253.93053    2942.4573 
   26600    1265.9998    101.51467      2204118          147  0.007193656    205.56009    3201.8818 
   26700    1265.7123    108.65933      2204118          147  0.007193656    261.36335    3257.0047 
   26800    1161.7735    107.55902      2204118          147  0.007193656    291.33179    3040.9744 
   26900    1159.0807     97.39236      2204118          147  0.007193656    216.89349     2960.163 
   27000    1200.2957    98.932482      2204118          147  0.007193656    216.35427    3057.1699 
   27100    1226.7174    103.23776      2204118          147  0.007193656    239.22023    3142.5697 
   27200    1230.2928    96.698592      2204118          147  0.007193656    186.97946    3098.7913 
   27300    1141.8338    104.23125      2204118          147  0.007193656    275.52951    2977.9797 
   27400    1190.4231    104.73459      2204118          147  0.007193656    262.02943     3079.479 
   27500    1298.7777    95.913543      2204118          147  0.007193656    157.24359    3231.1427 
   27600    1199.8893    98.446231      2204118          147  0.007193656    212.99267    3052.8464 
   27700    1125.6261    97.607023      2204118          147  0.007193656    233.71599    2897.8063 
   27800    1189.3619    96.859454      2204118          147  0.007193656    205.21436    3020.1523 
   27900    1249.0368    103.71974      2204118          147  0.007193656    233.84118    3190.0154 
   28000    1206.4901    110.47708      2204118          147  0.007193656    297.46804    3152.9444 
   28100     1174.312     107.6613      2204118          147  0.007193656    286.38597    3065.7045 
   28200    1205.3737    99.510075      2204118          147  0.007193656    214.75209    3067.5861 
   28300    1192.9487    103.83363      2204118          147  0.007193656    254.15056    3077.5775 
   28400    1213.1331    98.416837      2204118          147  0.007193656    207.78734    3078.9861 
   28500    1196.9532    93.920077      2204118          147  0.007193656    180.95868    3013.8634 
   28600    1178.1571    92.430581      2204118          147  0.007193656    176.43106    2964.8498 
   28700    1169.9454    101.12132      2204118          147  0.007193656    243.02333     3012.007 
   28800    1234.4922    103.14687      2204118          147  0.007193656     232.7308    3154.4816 
   28900     1238.079    103.81955      2204118          147  0.007193656    237.50121    3167.7409 
   29000    1166.2691    101.45424      2204118          147  0.007193656    245.19812    3005.4808 
   29100    1158.3647    99.260626      2204118          147  0.007193656    232.34899    2973.9239 
   29200    1242.9212    93.324075      2204118          147  0.007193656    157.50205    3099.2022 
   29300    1209.5222    99.632839      2204118          147  0.007193656    216.50105    3079.1536 
   29400    1187.2938    94.958256      2204118          147  0.007193656    187.26906    2997.3123 
   29500    1170.8595    99.874577      2204118          147  0.007193656     230.4163    3001.5633 
   29600    1251.4775     94.00519      2204118          147  0.007193656    158.07754    3120.0285 
   29700    1220.5903    93.621474      2204118          147  0.007193656    167.38444    3056.2326 
   29800    1138.7579    96.050179      2204118          147  0.007193656    213.23845    2908.4087 
   29900    1177.5296    97.097345      2204118          147  0.007193656    205.63185    2992.5655 
   30000    1259.7506    100.01821      2204118          147  0.007193656     197.4353    3178.9665 
   30100    1220.8397    105.92905      2204118          147  0.007193656    256.32757    3145.7659 
   30200    1175.5297    100.69011      2204118          147  0.007193656    233.78149    3015.9819 
   30300    1175.9284    96.819768      2204118          147  0.007193656    205.46747    2988.6115 
   30400    1208.9688    97.327497      2204118          147  0.007193656    197.80127    3059.1442 
   30500    1215.3938    101.11675      2204118          147  0.007193656    223.24463     3099.794 
   30600    1199.0408    101.68085      2204118          147  0.007193656    233.50007    3071.3456 
   30700    1192.8201    97.821675      2204118          147  0.007193656    207.34416    3030.4669 
   30800    1187.7653    99.032073      2204118          147  0.007193656    219.96284    3031.1219 
   30900    1225.1868    94.068339      2204118          147  0.007193656    170.38928    3070.1162 
   31000    1198.5291    94.677069      2204118          147  0.007193656    187.04538    3023.6799 
   31100    1173.1354     93.65865      2204118          147  0.007193656     189.1622    2965.6959 
   31200    1197.4343    92.382535      2204118          147  0.007193656    170.11957     3004.163 
   31300    1233.8338    91.408309      2204118          147  0.007193656    149.41973    3069.6122 
   31400    1205.6501    91.614781      2204118          147  0.007193656    160.40189      3013.89 
   31500    1160.2618    94.493477      2204118          147  0.007193656    198.46319     2944.528 
   31600    1200.9398    90.907146      2204118          147  0.007193656    155.43356    2997.7736 
   31700    1212.5269    97.510911      2204118          147  0.007193656    200.46664    3070.2307 
   31800    1219.9985    98.173556      2204118          147  0.007193656    201.64602    3089.0934 
   31900    1199.8172    96.556093      2204118          147  0.007193656    196.40849    3036.0917 
   32000    1184.3035    95.783018      2204118          147  0.007193656    197.15457    3000.1204 
   32100    1197.5708    95.762457      2204118          147  0.007193656     192.5976    3026.9642 
   32200    1216.3562    94.903706      2204118          147  0.007193656    178.32164    3057.1487 
   32300    1177.7955    102.91224      2204118          147  0.007193656    251.99904    3039.5621 
   32400    1205.5152    99.688692      2204118          147  0.007193656    216.45682    3069.6259 
   32500    1221.9019    95.905309      2204118          147  0.007193656    182.38342    3074.3357 
   32600    1188.4379    95.887991      2204118          147  0.007193656    193.75682     3006.508 
   32700    1169.2967    100.41555      2204118          147  0.007193656    233.59644    3001.0448 
   32800    1219.1615    102.74125      2204118          147  0.007193656    232.57387    3118.0403 
   32900     1227.956     105.8285      2204118          147  0.007193656    253.74929    3160.0303 
   33000    1198.5004    101.41581      2204118          147  0.007193656    231.40387    3067.9705 
   33100     1176.328    95.981896      2204118          147  0.007193656    200.75773    2984.8475 
   33200    1198.4914    91.925354      2204118          147  0.007193656    165.42945    3001.9747 
   33300    1217.2322    92.029281      2204118          147  0.007193656    161.86337    3042.7636 
   33400    1201.3285    92.533253      2204118          147  0.007193656    172.68103    3015.9412 
   33500     1184.352    89.818265      2204118          147  0.007193656    158.29122    2961.3719 
   33600    1187.1795    88.827147      2204118          147  0.007193656     147.5403    2957.3131 
   33700    1189.8137     98.49632      2204118          147  0.007193656    217.74642    3033.7537 
   33800    1230.5425    99.741454      2204118          147  0.007193656    210.58155    3122.9843 
   33900     1188.426    105.30174      2204118          147  0.007193656    267.55707    3080.2801 
   34000     1196.524    96.611522      2204118          147  0.007193656    199.61751    3031.5065 
   34100    1186.2777    95.431922      2204118          147  0.007193656    195.83948    3003.4779 
   34200    1193.0456    97.053219      2204118          147  0.007193656    205.92981    3029.5862 
   34300    1223.0662    96.186874      2204118          147  0.007193656    188.53247    3083.2406 
   34400    1211.7418    95.626321      2204118          147  0.007193656    187.81048    3055.7163 
   34500    1169.3818    98.409927      2204118          147  0.007193656     224.1241    2991.7739 
   34600    1201.9426    94.899972      2204118          147  0.007193656    187.95093    3032.6644 
   34700       1218.3    93.568981      2204118          147  0.007193656    172.69579    3056.1233 
   34800      1196.05    92.043916      2204118          147  0.007193656    168.46124    2999.2283 
   34900     1179.059    92.017366      2204118          147  0.007193656    172.80419    2963.3577 
   35000    1190.3839    96.277667      2204118          147  0.007193656    198.11248    3015.4693 
   35100     1213.926    103.46901      2204118          147  0.007193656    240.78666    3113.8621 
   35200    1225.7873    105.72134      2204118          147  0.007193656    252.42887    3153.5772 
   35300    1206.1571    101.20812      2204118          147  0.007193656    225.58121    3080.2694 
   35400    1168.7136    100.82305      2204118          147  0.007193656    236.44839    3002.5166 
   35500    1193.7792    101.00514      2204118          147  0.007193656    230.35422    3055.7468 
   35600    1237.0302    98.681357      2204118          147  0.007193656    198.57034    3126.3279 
   35700    1197.0686    101.31384      2204118          147  0.007193656    233.30997     3066.488 
   35800    1178.4365    98.626603      2204118          147  0.007193656    218.37604    3007.4562 
   35900    1179.3652      104.177      2204118          147  0.007193656    258.79355    3050.0716 
   36000    1242.9775    101.67204      2204118          147  0.007193656    217.35371     3159.187 
   36100    1215.2787    104.03845      2204118          147  0.007193656     247.7866    3124.0634 
   36200    1174.2772    100.67984      2204118          147  0.007193656    238.34937    3017.5854 
   36300    1170.5252    99.714452      2204118          147  0.007193656    233.14475    3003.5007 
   36400    1222.1752    97.667017      2204118          147  0.007193656    200.85679    3093.4559 
   36500    1246.5145    91.180373      2204118          147  0.007193656    145.04424    3095.2488 
   36600    1177.5714    88.172556      2204118          147  0.007193656     148.4597    2935.4923 
   36700    1148.7617    88.175553      2204118          147  0.007193656    158.66705    2877.5138 
   36800    1218.6591    91.068021      2204118          147  0.007193656    153.61129    3037.8889 
   36900    1231.7726    103.38028      2204118          147  0.007193656    240.02358    3155.3376 
   37000    1211.5682    101.43578      2204118          147  0.007193656    229.36796     3096.863 
   37100    1170.1995    101.47185      2204118          147  0.007193656    243.52915    3013.1142 
   37200    1198.3688    99.843555      2204118          147  0.007193656    221.43552    3057.6907 
   37300    1228.1417    100.18028      2204118          147  0.007193656     214.2744     3120.995 
   37400    1209.4506    98.378894      2204118          147  0.007193656    208.22826    3070.7113 
   37500    1191.4681    91.642598      2204118          147  0.007193656    163.91299    2983.8357 
   37600    1160.1172    97.659834      2204118          147  0.007193656    220.09314    2965.8157 
   37700    1205.9972    101.14142      2204118          147  0.007193656    228.11391    3082.4236 
   37800    1242.0301    103.62306      2204118          147  0.007193656    231.73731    3171.3285 
   37900    1196.5096    106.09531      2204118          147  0.007193656    266.75811    3098.6129 
   38000    1185.8637    97.860277      2204118          147  0.007193656     210.7661    3017.4247 
   38100    1185.4244       95.322      2204118          147  0.007193656     194.7577    3000.3765 
   38200    1211.2975    93.126924      2204118          147  0.007193656    169.87769    3036.7319 
   38300    1209.0428    93.505924      2204118          147  0.007193656    174.37778    3035.8959 
   38400    1180.6721    96.082212      2204118          147  0.007193656    200.82438    2995.1955 
   38500    1172.2335    106.51645      2204118          147  0.007193656    280.07518    3054.4743 
   38600    1255.2541    103.82092      2204118          147  0.007193656    225.79631    3196.6854 
   38700    1216.1252    108.10673      2204118          147  0.007193656    270.92644    3149.2067 
   38800    1172.5148    104.74777      2204118          147  0.007193656    262.69852    3037.7633 
   38900     1189.122    97.672384      2204118          147  0.007193656    204.23674    3018.6068 
   39000     1205.239    97.819354      2204118          147  0.007193656    199.12743    3051.6428 
   39100    1200.5279    103.18395      2204118          147  0.007193656    240.71292    3082.0781 
   39200    1207.3841    101.49742      2204118          147  0.007193656    224.00549    3081.5978 
   39300    1187.5876    104.66749      2204118          147  0.007193656    255.11447    3065.8531 
   39400    1217.5515    101.54734      2204118          147  0.007193656    222.54234    3104.1985 
   39500    1213.6755    98.961365      2204118          147  0.007193656    205.69683    3078.1794 
   39600    1185.2983    95.691058      2204118          147  0.007193656    191.35705    2996.6775 
   39700    1175.5829    96.263865      2204118          147  0.007193656    199.22025    2981.5466 
   39800     1206.065    99.146386      2204118          147  0.007193656    209.90495    3064.3753 
   39900    1232.0565    100.71878      2204118          147  0.007193656    212.67089    3128.6568 
   40000    1213.7131    98.950559      2204118          147  0.007193656    207.62836    3080.1998 
   40100    1181.0256    94.773757      2204118          147  0.007193656     189.3897    2984.5975 
   40200    1176.1838    94.192056      2204118          147  0.007193656     186.9829    2970.7314 
   40300    1199.0503    100.34395      2204118          147  0.007193656    224.33428    3062.2023 
   40400     1234.814    102.16049      2204118          147  0.007193656    224.92396    3147.4363 
   40500    1221.1387    98.550884      2204118          147  0.007193656    202.74491    3092.8911 
   40600    1153.6628     102.4089      2204118          147  0.007193656    256.23451    2986.6812 
   40700    1196.8144    99.497143      2204118          147  0.007193656    217.69036    3050.2666 
   40800     1244.349    100.01535      2204118          147  0.007193656    204.67183    3149.7513 
   40900     1214.534    97.602759      2204118          147  0.007193656    196.50256     3071.017 
   41000    1137.9526    103.07889      2204118          147  0.007193656    265.15923    2958.4236 
   41100    1204.7848    100.44517      2204118          147  0.007193656    221.53933    3072.9796 
   41200    1248.2704    106.66929      2204118          147  0.007193656    253.63275    3207.9932 
   41300    1236.8271    101.29159      2204118          147  0.007193656     216.1269    3143.4036 
   41400    1144.6483    102.58809      2204118          147  0.007193656    260.39219    2969.5037 
   41500    1177.9634    94.410766      2204118          147  0.007193656    186.12794    2974.0883 
   41600    1215.3898    104.03596      2204118          147  0.007193656     246.0606    3122.6005 
   41700    1270.5997    100.81264      2204118          147  0.007193656    202.26497    3209.4735 
   41800    1191.4059    94.616966      2204118          147  0.007193656    183.13773    3002.9134 
   41900    1118.8921     94.84435      2204118          147  0.007193656    210.53755    2858.6902 
   42000    1191.4816    97.847035      2204118          147  0.007193656    205.62642    3025.5812 
   42100    1271.2741    106.14861      2204118          147  0.007193656    238.20985    3247.0146 
   42200    1243.5285     103.8075      2204118          147  0.007193656    230.40133    3173.5388 
   42300    1142.4693    98.257486      2204118          147  0.007193656     225.6081    2929.5624 
   42400    1138.8833    95.658374      2204118          147  0.007193656    207.33004     2902.797 
   42500    1224.6074    102.19382      2204118          147  0.007193656    225.35335    3123.7089 
   42600    1268.1396    107.81522      2204118          147  0.007193656    250.85281     3252.239 
   42700     1210.242    102.44187      2204118          147  0.007193656    229.85629    3094.2125 
   42800    1125.7507    101.94799      2204118          147  0.007193656    257.00032    2921.3856 
   42900    1177.8878    100.56328      2204118          147  0.007193656    228.77544    3016.5568 
   43000    1262.6634    103.68797      2204118          147  0.007193656    222.17171     3210.597 
   43100    1233.5643    106.94875      2204118          147  0.007193656    259.34243    3178.8969 
   43200    1173.1661    98.286491      2204118          147  0.007193656    219.33745    2995.9437 
   43300    1159.4492    89.449072      2204118          147  0.007193656    160.18125     2904.323 
   43400    1192.5974     91.23069      2204118          147  0.007193656    160.99857    2983.5942 
   43500    1224.1327    100.15622      2204118          147  0.007193656    215.17827    3112.4106 
   43600    1233.0472    98.968788      2204118          147  0.007193656    202.06306    3120.3937 
   43700    1175.7774    97.678741      2204118          147  0.007193656    212.66846    2995.4552 
   43800    1150.7271    100.74273      2204118          147  0.007193656    245.20772    2968.7062 
   43900    1233.4136    99.025174      2204118          147  0.007193656    200.74357    3119.9414 
   44000    1250.7416    102.22733      2204118          147  0.007193656    218.68004    3178.8893 
   44100    1194.8576     97.23071      2204118          147  0.007193656    202.10129    3030.0463 
   44200    1139.8603    94.810564      2204118          147  0.007193656    203.73757     2901.517 
   44300    1198.1967    93.327835      2204118          147  0.007193656    170.78155    3006.6294 
   44400    1238.3789    105.13667      2204118          147  0.007193656    245.35234    3176.3019 
   44500    1249.8254    102.38775      2204118          147  0.007193656    221.57271    3179.6135 
   44600    1174.3602     96.14875      2204118          147  0.007193656    204.09302    2983.5255 
   44700    1140.1515    93.369997      2204118          147  0.007193656    196.98863    2895.4572 
   44800    1205.9345    95.347034      2204118          147  0.007193656    187.84349    3042.0049 
   44900    1268.4247    96.870927      2204118          147  0.007193656    176.74359    3178.8044 
   45000     1218.721    91.163785      2204118          147  0.007193656    153.42556    3037.8495 
   45100    1142.4242    84.361778      2204118          147  0.007193656    131.47598    2835.3236 
   45200    1143.6249    89.228244      2204118          147  0.007193656    166.57285    2873.2622 
   45300    1239.2667    99.647796      2204118          147  0.007193656    208.13499    3141.1859 
   45400    1288.3387    101.76307      2204118          147  0.007193656    204.81429    3254.0068 
   45500    1182.3272    98.985878      2204118          147  0.007193656    222.73797    3021.0264 
   45600    1116.3618    94.080801      2204118          147  0.007193656    210.02112    2852.1851 
   45700      1181.21    95.594654      2204118          147  0.007193656    197.83887    2993.4831 
   45800    1265.0658    104.07625      2204118          147  0.007193656    233.57967    3227.6908 
   45900    1267.2516    93.813663      2204118          147  0.007193656    156.61674    3155.9012 
   46000    1121.6515    92.365229      2204118          147  0.007193656    198.88538    2853.5689 
   46100    1127.6639    90.440852      2204118          147  0.007193656    179.86449     2848.778 
   46200    1230.4326    101.81348      2204118          147  0.007193656    227.00196    3139.1445 
   46300    1297.6854    105.01468      2204118          147  0.007193656    226.71935    3298.0334 
   46400    1195.5302    99.129776      2204118          147  0.007193656    222.03369    3051.5706 
   46500    1123.7393     86.61279      2204118          147  0.007193656    155.93825    2815.5631 
   46600    1143.2348    90.805748      2204118          147  0.007193656    180.47257    2886.2385 
   46700    1265.3246    97.338017      2204118          147  0.007193656    182.99295    3177.7165 
   46800    1277.6376    101.94608      2204118          147  0.007193656    212.43669    3236.3024 
   46900     1176.604    97.462872      2204118          147  0.007193656     215.6673    3000.4103 
   47000    1127.7197    93.297858      2204118          147  0.007193656    202.46503    2871.5106 
   47100    1197.5487     94.81879      2204118          147  0.007193656    188.21947    3022.5337 
   47200    1256.5015    101.11725      2204118          147  0.007193656    213.90879    3187.7503 
   47300    1212.7311    100.04435      2204118          147  0.007193656    219.71239    3089.9598 
   47400     1156.516    96.271067      2204118          147  0.007193656    210.03846     2947.238 
   47500    1153.4906     102.9197      2204118          147  0.007193656    261.33975    2991.3789 
   47600    1249.6121     101.7463      2204118          147  0.007193656    216.31413      3173.85 
   47700    1242.3047    105.59854      2204118          147  0.007193656    249.08938    3189.3305 
   47800    1185.7469     99.31544      2204118          147  0.007193656    223.22634    3029.6085 
   47900    1146.3347    96.244148      2204118          147  0.007193656    214.13382    2927.2367 
   48000    1195.8107    96.889688      2204118          147  0.007193656    200.93266    3031.1334 
   48100    1254.8486    98.151268      2204118          147  0.007193656    188.72501    3158.6545 
   48200    1205.1471    102.19271      2204118          147  0.007193656    237.51285    3089.8107 
   48300    1169.5036    98.974652      2204118          147  0.007193656     226.0165    2993.9546 
   48400    1195.8584    94.390026      2204118          147  0.007193656    182.67916    3012.9928 
   48500    1201.9982     99.49789      2204118          147  0.007193656    219.35996     3064.205 
   48600    1197.1932    103.13851      2204118          147  0.007193656    247.38704    3080.8598 
   48700    1196.8484    105.46597      2204118          147  0.007193656    264.98118     3097.638 
   48800    1218.4919    98.574522      2204118          147  0.007193656    204.19886    3088.0807 
   48900    1171.2079    103.40508      2204118          147  0.007193656    257.83852    3029.8103 
   49000     1207.935    98.641738      2204118          147  0.007193656    208.83149    3067.7276 
   49100    1197.8968    103.64414      2204118          147  0.007193656    251.59017    3086.7281 
   49200    1198.6247    102.63765      2204118          147  0.007193656    243.21041    3080.0713 
   49300    1218.6341    97.082531      2204118          147  0.007193656    194.17441    3078.3927 
   49400     1189.692    99.556403      2204118          147  0.007193656    224.77921    3040.4984 
   49500    1200.0072    95.818805      2204118          147  0.007193656     193.2995    3033.4324 
   49600    1203.4338    94.297399      2204118          147  0.007193656    181.28899    3029.5319 
   49700    1182.0362    98.198118      2204118          147  0.007193656    218.83205    3016.4317 
   49800    1202.8946     98.64549      2204118          147  0.007193656    213.86639     3060.833 
   49900    1224.1209    97.205706      2204118          147  0.007193656     194.2829    3091.4872 
   50000    1175.6854    104.79671      2204118          147  0.007193656    269.29883    3051.8677 
   50100    1210.2933    97.952367      2204118          147  0.007193656    205.46671    3069.9443 
   50200    1221.1412    91.817756      2204118          147  0.007193656    157.25871    3047.4108 
   50300    1184.8538    88.229588      2204118          147  0.007193656    145.13152       2949.4 
   50400    1156.5008    92.559986      2204118          147  0.007193656    188.08107    2925.2447 
   50500    1203.7369    97.352718      2204118          147  0.007193656    205.21071    3054.1708 
   50600    1264.3671    94.973603      2204118          147  0.007193656    163.92814    3156.3856 
   50700    1187.6715    98.978123      2204118          147  0.007193656    220.30546    3031.2426 
   50800    1151.6587    97.986895      2204118          147  0.007193656    223.29072    2948.9941 
   50900     1197.894     100.6148      2204118          147  0.007193656    226.55381    3061.6851 
   51000    1248.9356    102.49545      2204118          147  0.007193656    224.39697    3180.3318 
   51100    1215.0611    99.664972      2204118          147  0.007193656    216.36673    3092.1287 
   51200     1140.602    99.769516      2204118          147  0.007193656    242.60459    2942.1395 
   51300    1169.3096    102.34306      2204118          147  0.007193656    249.42654    3016.9055 
   51400    1246.5286    108.86929      2204118          147  0.007193656    271.64653    3221.8844 
   51500    1273.8708    100.72108      2204118          147  0.007193656    202.41381    3217.3643 
   51600    1173.5155    90.737094      2204118          147  0.007193656    166.75034    2944.1837 
   51700    1113.6738    89.084729      2204118          147  0.007193656    177.63618    2813.4384 
   51800    1196.4965    93.235534      2204118          147  0.007193656     178.5665    3010.3904 
   51900     1269.933    102.33877      2204118          147  0.007193656    219.38928      3225.02 
   52000     1234.261    100.37222      2204118          147  0.007193656    217.54053     3138.744 
   52100     1148.374     93.92237      2204118          147  0.007193656    201.02492    2918.9543 
   52200    1140.4116    93.674137      2204118          147  0.007193656    203.09297    2902.1771 
   52300    1237.2424    93.723401      2204118          147  0.007193656    169.01419    3097.2739 
   52400    1257.5593    96.506381      2204118          147  0.007193656    180.42109    3156.7662 
   52500    1174.0503    98.259477      2204118          147  0.007193656    221.11402     2999.813 
   52600     1149.136     96.24688      2204118          147  0.007193656    212.13365    2931.8665 
   52700      1204.31    99.586238      2204118          147  0.007193656    215.40238    3065.7188 
   52800    1252.0919    104.10268      2204118          147  0.007193656    231.11199    3194.5171 
   52900    1213.3417    102.56618      2204118          147  0.007193656    234.29742    3105.9898 
   53000    1143.6723    100.93041      2204118          147  0.007193656    249.50741    2956.3089 
   53100     1187.889    94.238915      2204118          147  0.007193656    183.12033    2994.5722 
   53200    1230.1458    99.123606      2204118          147  0.007193656    205.10667    3116.5704 
   53300    1226.5397    101.24477      2204118          147  0.007193656    223.46299     3126.392 
   53400    1196.6028    92.581982      2204118          147  0.007193656    169.25718    3001.3327 
   53500    1142.6638    95.667321      2204118          147  0.007193656    212.69056    2917.1051 
   53600    1187.9928    100.66712      2204118          147  0.007193656     233.8434    3045.5411 
   53700     1265.016    101.58873      2204118          147  0.007193656    213.05294    3207.0463 
   53800    1216.6174    100.52384      2204118          147  0.007193656    224.79301    3104.2383 
   53900    1152.3862    92.015895      2204118          147  0.007193656    185.21351    2912.6386 
   54000    1158.0648    91.171328      2204118          147  0.007193656     177.1262    2917.9913 
   54100    1242.7719    91.928549      2204118          147  0.007193656    150.78157    3092.1283 
   54200    1223.0997    100.32327      2204118          147  0.007193656    219.04152    3113.8288 
   54300    1194.2946    96.674616      2204118          147  0.007193656    201.71409    3028.3265 
   54400    1172.6694    94.405315      2204118          147  0.007193656    193.20398    2968.6349 
   54500     1185.849    97.164425      2204118          147  0.007193656    208.82134     3015.445 
   54600     1242.311    94.476215      2204118          147  0.007193656      167.398     3107.654 
   54700    1199.3194     95.81809      2204118          147  0.007193656     190.4009    3028.9059 
   54800    1135.2827    104.61814      2204118          147  0.007193656    276.96254    2963.9077 
   54900    1201.4117    109.09081      2204118          147  0.007193656     286.1729    3129.6299 
   55000    1281.8672    105.03764      2204118          147  0.007193656    227.75741    3261.6336 
   55100    1211.8553    98.837408      2204118          147  0.007193656    208.27647    3076.4509 
   55200    1127.8459    95.335191      2204118          147  0.007193656    213.80613    2883.1503 
   55300    1159.4523    99.145381      2204118          147  0.007193656    231.56942    2975.7185 
   55400    1272.6543    99.310049      2204118          147  0.007193656    192.67159    3204.7428 
   55500    1241.0794    98.889171      2204118          147  0.007193656    203.81894    3141.1599 
   55600    1165.8132    87.145958      2204118          147  0.007193656    143.91081    2903.1147 
   55700    1125.6407    89.151465      2204118          147  0.007193656    174.60813    2838.7331 
   55800    1214.6173    92.680163      2204118          147  0.007193656    168.29401    3043.0056 
   55900    1275.5397    96.897006      2204118          147  0.007193656    176.98821    3195.8885 
   56000    1208.0812    97.937692      2204118          147  0.007193656    209.07944    3068.3216 
   56100    1168.1954    87.946646      2204118          147  0.007193656    146.94887    2911.7907 
   56200    1149.8018    94.718119      2204118          147  0.007193656    204.46653     2925.775 
   56300    1234.6301    98.793384      2204118          147  0.007193656    202.84446    3124.9214 
   56400    1257.1512    103.33434      2204118          147  0.007193656    229.21534    3204.5944 
   56500    1203.2312    94.447636      2204118          147  0.007193656    181.56625    3029.3294 
   56600    1124.1892    95.867209      2204118          147  0.007193656    220.64418    2881.3338 
   56700    1201.1527    93.739714      2204118          147  0.007193656    175.94826    3018.7923 
   56800    1252.5645    101.54258      2204118          147  0.007193656    216.51149    3181.0351 
   56900    1218.1543    102.71937      2204118          147  0.007193656    238.73215    3121.8149 
   57000    1180.2333    92.335832      2204118          147  0.007193656    175.79922     2969.132 
   57100    1166.1231    88.628148      2204118          147  0.007193656    152.68276    2912.6199 
   57200    1192.6072     94.25706      2204118          147  0.007193656    182.04571    3004.6645 
   57300    1215.0155    107.10856      2204118          147  0.007193656    268.13361    3143.7877 
   57400    1265.3265    102.15931      2204118          147  0.007193656    212.27978    3207.0079 
   57500    1176.5844    105.30883      2204118          147  0.007193656    271.36875    3056.0653 
   57600    1159.5117    97.154862      2204118          147  0.007193656    217.52086    2961.8106 
   57700    1193.9175    95.809177      2204118          147  0.007193656    196.92708    3022.6471 
   57800    1249.1114    93.177389      2204118          147  0.007193656    159.13278    3115.4836 
   57900    1206.6065    92.925814      2204118          147  0.007193656    174.27978    3030.0317 
   58000    1158.4341    91.758776      2204118          147  0.007193656    183.24325    2924.9824 
   58100    1189.2343    92.841194      2204118          147  0.007193656    180.88023    2995.5161 
   58200    1241.3369    92.973708      2204118          147  0.007193656     161.4656     3099.416 
   58300    1195.1482    99.004803      2204118          147  0.007193656    222.74483    3051.3777 
   58400    1161.3082    99.357538      2204118          147  0.007193656     236.6039    2985.1454 
   58500    1191.4238     98.80715      2204118          147  0.007193656    219.07234    3038.8904 
   58600    1241.3923    97.571695      2204118          147  0.007193656     191.6491    3129.7308 
   58700    1197.7753    100.48066      2204118          147  0.007193656    231.07741     3065.928 
   58800    1180.8421    94.811302      2204118          147  0.007193656    194.60805    2989.3816 
   58900      1166.79    100.52092      2204118          147  0.007193656    242.40675    3003.9223 
   59000    1218.3853    102.90523      2204118          147  0.007193656    241.31297    3124.9425 
   59100    1240.7563    99.966067      2204118          147  0.007193656    212.43974    3149.0161 
   59200    1186.9173    94.266695      2204118          147  0.007193656    190.31897    2999.4712 
   59300    1166.9094    89.686548      2204118          147  0.007193656    162.07868    2923.8769 
   59400    1186.9675    95.159665      2204118          147  0.007193656    193.01409     3002.285 
   59500    1245.2941    100.43769      2204118          147  0.007193656    208.46995    3155.7861 
   59600    1219.8979    100.46163      2204118          147  0.007193656    215.78292    3102.9923 
   59700    1171.9255    101.93738      2204118          147  0.007193656    244.66277    3018.3329 
   59800    1206.2274    96.611217      2204118          147  0.007193656    194.85738     3049.712 
   59900    1208.4672    96.155966      2204118          147  0.007193656    192.68819    3052.8438 
   60000    1203.3953    91.622667      2204118          147  0.007193656      160.525    3008.6768 
   60100    1140.8955     94.83622      2204118          147  0.007193656    208.02572    2908.2552 
   60200    1177.0072    98.494193      2204118          147  0.007193656    223.98471    3009.6819 
   60300    1257.4028    95.165676      2204118          147  0.007193656    169.53751    3145.5121 
   60400    1204.4192    95.345622      2204118          147  0.007193656     190.9639    3041.5388 
   60500    1167.9109    94.223371      2204118          147  0.007193656    196.64386    2960.8124 
   60600    1202.5226    94.708903      2204118          147  0.007193656    188.23422    3034.3205 
   60700    1285.5078    93.040653      2204118          147  0.007193656    146.36219    3188.8546 
   60800     1218.968    99.466542      2204118          147  0.007193656    219.88472    3104.8934 
   60900    1160.7967    91.672419      2204118          147  0.007193656    181.47559    2928.8065 
   61000    1186.8047    91.396442      2204118          147  0.007193656    170.41651    2979.3021 
   61100    1236.6893    94.921908      2204118          147  0.007193656    177.78842     3104.739 
   61200    1220.9227    98.056125      2204118          147  0.007193656    206.21975    3095.8546 
   61300    1164.1215    90.689623      2204118          147  0.007193656     170.5336    2925.7336 
   61400    1129.1252    91.912852      2204118          147  0.007193656    190.39854    2862.7706 
   61500    1183.7647    99.687107      2204118          147  0.007193656    226.85598    3028.5466 
   61600    1218.4525    96.606867      2204118          147  0.007193656    191.13755     3074.926 
   61700    1192.6584    96.405323      2204118          147  0.007193656    198.79492    3021.5348 
   61800    1141.6719    103.36367      2204118          147  0.007193656    269.89187    2971.9588 
   61900    1242.7924    97.135611      2204118          147  0.007193656       187.03    3128.4252 
   62000    1253.2861    96.027964      2204118          147  0.007193656    177.20377    3143.4352 
   62100    1182.1531    91.691535      2204118          147  0.007193656    171.21774    2969.0941 
   62200    1160.3284    97.254369      2204118          147  0.007193656    221.18593    2967.4085 
   62300    1224.2036    92.889463      2204118          147  0.007193656    162.77376    3060.1737 
   62400    1208.8829    99.457005      2204118          147  0.007193656    216.05798    3077.1975 
   62500    1171.1357     101.2824      2204118          147  0.007193656    241.77672    3013.5775 
   62600    1157.7677    98.145683      2204118          147  0.007193656    222.24116    2962.4031 
   62700    1225.5574    96.229861      2204118          147  0.007193656    182.65608    3083.2602 
   62800    1232.0469    104.99476      2204118          147  0.007193656    246.33128    3162.2944 
   62900    1196.5545    102.56178      2204118          147  0.007193656    241.79762    3073.7588 
   63000    1127.3738    98.191608      2204118          147  0.007193656    235.36235    2903.5891 
   63100    1183.8784    95.558507      2204118          147  0.007193656    196.50994    2998.4697 
   63200    1226.6283    94.674796      2204118          147  0.007193656    174.90243     3078.041 
   63300    1197.2093     97.53183      2204118          147  0.007193656    206.10657    3039.6175 
   63400    1196.2793    96.089301      2204118          147  0.007193656     195.7877    3027.0976 
   63500    1201.1963    98.162907      2204118          147  0.007193656    210.73278    3053.6799 
   63600    1218.0687    97.842163      2204118          147  0.007193656    201.00675    3083.8868 
   63700    1194.7028    99.098725      2204118          147  0.007193656    219.12462    3046.7031 
   63800    1191.1739    92.068213      2204118          147  0.007193656    169.18483    2988.4115 
   63900    1169.4628    92.088708      2204118          147  0.007193656    177.81951    2945.6609 
   64000    1191.7454    98.888097      2204118          147  0.007193656    221.53483     3042.114 
   64100    1270.8683    95.577641      2204118          147  0.007193656     168.7147    3176.5589 
   64200    1207.8906    92.521015      2204118          147  0.007193656    169.60371    3028.3946 
   64300    1174.8588    92.493882      2204118          147  0.007193656    181.28899    2961.9016 
   64400    1196.0688    91.752865      2204118          147  0.007193656    165.61043    2996.4221 
   64500    1212.2433    96.517411      2204118          147  0.007193656    192.57568    3061.6684 
   64600    1241.6597     106.0787      2204118          147  0.007193656    251.42067    3190.1352 
   64700    1270.1426    105.57747      2204118          147  0.007193656     235.1143     3241.241 
   64800    1175.5047    101.16735      2204118          147  0.007193656    236.66663     3018.808 
   64900    1189.3951    95.611052      2204118          147  0.007193656    191.24303    3006.2596 
   65000     1193.528    101.86169      2204118          147  0.007193656    237.57921    3062.3773 
   65100    1245.8564    102.42395      2204118          147  0.007193656    223.83685    3172.4839 
   65200    1251.3718    97.525547      2204118          147  0.007193656    186.92511    3148.6257 
   65300    1149.0435    95.158113      2204118          147  0.007193656    207.04102    2926.5549 
   65400    1178.7678     94.36951      2204118          147  0.007193656    190.10148    2979.9657 
   65500    1231.3868    96.966359      2204118          147  0.007193656    191.07878    3105.4797 
   65600    1220.1168    95.992242      2204118          147  0.007193656    186.12982    3073.8574 
   65700     1141.706    97.372025      2204118          147  0.007193656    222.69032     2924.838 
   65800    1169.6837    98.816253      2204118          147  0.007193656    222.44531    2990.8097 
   65900    1272.7887    100.72973      2204118          147  0.007193656    200.94454    3213.3339 
   66000    1219.1561    95.130553      2204118          147  0.007193656    179.73495    3065.1888 
   66100    1142.7124    99.378272      2204118          147  0.007193656    239.91238    2944.4419 
   66200    1186.8083    101.31206      2204118          147  0.007193656    237.55332    3046.4476 
   66300     1242.656    101.54085      2204118          147  0.007193656    218.49077    3159.5631 
   66400    1209.7694    102.18059      2204118          147  0.007193656    236.25046    3099.4881 
   66500    1193.7078    93.810076      2204118          147  0.007193656     181.0104    3006.2341 
   66600    1198.0308     88.99402      2204118          147  0.007193656    144.85287     2980.308 
   66700    1190.8491    91.660573      2204118          147  0.007193656    167.46686    2985.9245 
   66800    1196.4509    94.264703      2204118          147  0.007193656    183.62583    3015.3418 
   66900    1220.5679    97.879811      2204118          147  0.007193656    202.12789    3090.9231 
   67000    1255.8208    96.549512      2204118          147  0.007193656     179.0384    3151.2687 
   67100    1175.9043    92.573723      2204118          147  0.007193656    177.40007    2960.4871 
   67200    1154.9424    92.550702      2204118          147  0.007193656    185.11181    2918.5871 
   67300    1213.1167    92.889333      2204118          147  0.007193656    165.68917     3036.849 
   67400    1211.6293    99.199463      2204118          147  0.007193656    212.30363    3079.9431 
   67500    1194.8196    101.80061      2204118          147  0.007193656    238.46311    3066.3181 
   67600    1186.5478    99.745717      2204118          147  0.007193656    226.96239      3035.24 
   67700    1155.7995    94.367297      2204118          147  0.007193656    199.95829     2935.462 
   67800    1178.5614    93.681348      2204118          147  0.007193656    187.90432    2977.2801 
   67900     1240.707    95.470727      2204118          147  0.007193656    176.91022    3113.3699 
   68000    1227.9501    98.619088      2204118          147  0.007193656     203.1084    3109.3755 
   68100    1159.6765    97.317391      2204118          147  0.007193656    216.10778    2960.7874 
   68200    1154.1023    97.480845      2204118          147  0.007193656    218.91822     2950.405 
   68300     1248.255    102.69772      2204118          147  0.007193656    224.98326    3179.3071 
   68400     1252.008    94.592426      2204118          147  0.007193656    163.09475    3126.3012 
   68500    1158.9548    99.808749      2204118          147  0.007193656    236.05415    2979.0257 
   68600    1186.7784    96.371515      2204118          147  0.007193656    198.77071    3007.5941 
   68700    1215.1965    103.52702      2204118          147  0.007193656    242.21246    3118.2947 
   68800    1241.0683    106.67592      2204118          147  0.007193656    255.05616    3192.3708 
   68900    1221.5864    103.60734      2204118          147  0.007193656    241.44329     3132.649 
   69000    1169.7758    91.962334      2204118          147  0.007193656    176.34017    2944.9225 
   69100    1179.9424    86.559613      2204118          147  0.007193656    133.55569       2926.2 
   69200    1201.1156    95.046727      2204118          147  0.007193656    188.60794    3031.3641 
   69300    1254.4737    99.214222      2204118          147  0.007193656    198.79691    3167.8391 
   69400    1199.2615    98.162333      2204118          147  0.007193656    209.78708     3048.155 
   69500    1135.3052    95.666852      2204118          147  0.007193656    213.96398    2900.9625 
   69600    1193.9851    94.283457      2204118          147  0.007193656    182.39411     3008.274 
   69700    1224.2889    99.296843      2204118          147  0.007193656    209.22881    3106.8308 
   69800    1222.6619    98.119831      2204118          147  0.007193656    201.56393     3095.315 
   69900    1149.5785    94.064297      2204118          147  0.007193656    200.89583    2921.6759 
   70000    1152.4847    86.558849      2204118          147  0.007193656    144.31624    2871.9745 
   70100    1233.2452    94.896604      2204118          147  0.007193656    177.59755    3096.3968 
   70200    1251.2766     93.50189      2204118          147  0.007193656    159.58067    3121.0561 
   70300    1177.6521    95.862096      2204118          147  0.007193656    203.03596    2990.2596 
   70400    1168.3118    93.848864      2204118          147  0.007193656    190.20678    2955.3241 
   70500    1210.0736    98.759081      2204118          147  0.007193656     211.1201    3075.0777 
   70600    1255.8577    101.29391      2204118          147  0.007193656    212.32242    3184.6402 
   70700    1179.0611    106.44009      2204118          147  0.007193656    279.11137    3069.6698 
   70800    1167.0837    97.476607      2204118          147  0.007193656    215.74363    2977.9543 
   70900    1205.7451    95.448094      2204118          147  0.007193656    187.20202    3040.9152 
   71000    1242.5504    103.28726      2204118          147  0.007193656    231.82074    3172.6433 
   71100    1225.7316    104.01438      2204118          147  0.007193656    243.90159     3144.918 
   71200     1181.707    94.612847      2204118          147  0.007193656     190.0926    2986.9132 
   71300    1165.7687    92.714258      2204118          147  0.007193656    182.05916    2941.1575 
   71400    1213.2182      95.7947      2204118          147  0.007193656    187.09627    3058.4964 
   71500    1239.1347    106.37153      2204118          147  0.007193656    255.20916    3187.9474 
   71600    1240.7773    104.05599      2204118          147  0.007193656    236.28803    3172.9139 
   71700    1160.2612    93.920363      2204118          147  0.007193656     189.5768    2935.6402 
   71800    1161.4215    96.126223      2204118          147  0.007193656    207.53024    2956.3399 
   71900    1237.1595    96.720682      2204118          147  0.007193656    186.35273    3114.4162 
   72000     1229.531    95.397226      2204118          147  0.007193656    180.91679    3090.9255 
   72100    1171.8317    91.105731      2204118          147  0.007193656    169.24884    2942.6971 
   72200    1167.7417    92.858602      2204118          147  0.007193656     182.1721    2945.9402 
   72300    1174.3653    101.36606      2204118          147  0.007193656    241.50758    3020.9522 
   72400    1200.3163    104.52106      2204118          147  0.007193656    253.68032    3094.5448 
   72500    1220.4891    103.79707      2204118          147  0.007193656    240.52377    3129.1324 
   72600    1192.7576    101.32861      2204118          147  0.007193656    232.74927     3055.724 
   72700    1128.6794    94.779023      2204118          147  0.007193656    207.95552    2879.2723 
   72800    1146.4264    104.31001      2204118          147  0.007193656    275.52276    2988.8426 
   72900     1225.845    99.832229      2204118          147  0.007193656    214.02144    3115.3062 
   73000    1203.8997    98.673117      2204118          147  0.007193656    212.90347    3062.2489 
   73100    1153.9832     101.8208      2204118          147  0.007193656    254.23855    2985.4434 
   73200    1214.1461    100.50776      2204118          147  0.007193656    222.98495    3096.5811 
   73300    1264.3068    102.84517      2204118          147  0.007193656    223.84126     3216.156 
   73400    1216.2789    96.518506      2204118          147  0.007193656    191.48183     3070.126 
   73500    1167.0945    106.01213      2204118          147  0.007193656    281.36925    3043.6055 
   73600    1248.1541    91.727521      2204118          147  0.007193656    145.43775     3099.523 
   73700    1163.7925    98.583871      2204118          147  0.007193656    228.66556    2983.0868 
   73800     1165.741    93.892731      2204118          147  0.007193656    189.88212    2948.9149 
   73900    1204.3232    112.61246      2204118          147  0.007193656    316.85172    3167.1995 
   74000    1280.9807    98.800149      2204118          147  0.007193656    183.80867    3215.5867 
   74100     1177.175    102.00908      2204118          147  0.007193656    246.89935    3032.9938 
   74200    1171.3831    98.627374      2204118          147  0.007193656    223.88379    2996.2703 
   74300    1218.6258    97.017337      2204118          147  0.007193656    196.70629     3080.905 
   74400    1237.2632    98.916726      2204118          147  0.007193656    205.90477    3134.2138 
   74500    1184.5936    91.299712      2204118          147  0.007193656     169.3796    2973.0322 
   74600    1134.5454    91.370194      2204118          147  0.007193656    189.14378    2874.3441 
   74700     1207.125    90.809816      2204118          147  0.007193656    158.50335    3015.4824 
   74800    1229.4381    90.887697      2204118          147  0.007193656     150.7832    3060.5721 
   74900    1178.2838    97.338747      2204118          147  0.007193656    215.90419     3004.623 
   75000    1193.3696    95.989358      2204118          147  0.007193656    197.71813    3022.1413 
   75100    1268.8971     100.1029      2204118          147  0.007193656    199.31217    3202.4911 
   75200    1278.7694    103.61055      2204118          147  0.007193656    219.91728    3246.4615 
   75300    1199.1797    101.22942      2204118          147  0.007193656    230.58898    3068.7634 
   75400    1191.5982    98.878311      2204118          147  0.007193656    217.17454    3037.4053 
   75500    1196.6208    98.913601      2204118          147  0.007193656    217.84844    3049.9665 
   75600     1210.156    96.885568      2204118          147  0.007193656    197.26329    3061.4159 
   75700    1196.3689    92.558616      2204118          147  0.007193656    167.76053    2999.2825 
   75800    1139.3499    98.666909      2204118          147  0.007193656    234.69892    2931.2703 
   75900    1225.4583    94.746038      2204118          147  0.007193656    173.90387    3074.2736 
[...]
  381700    1182.7047    93.234845      2204118          147  0.007193656    181.75884    2980.9408 
  381800    1131.6636    94.377564      2204118          147  0.007193656    208.17596    2886.5557 
  381900    1210.4058    94.028215      2204118          147  0.007193656    175.64786    3040.3916 
  382000    1244.3978    94.691056      2204118          147  0.007193656    168.51241    3113.7074 
  382100    1198.0934    94.025636      2204118          147  0.007193656    180.61354    3016.2169 
  382200    1167.4237    97.067173      2204118          147  0.007193656    213.91868    2976.9342 
  382300    1199.0976    98.159526      2204118          147  0.007193656    210.90836    3048.8885 
  382400    1228.3852    91.893201      2204118          147  0.007193656    153.72747    3061.0244 
  382500    1181.9009    97.475075      2204118          147  0.007193656    211.63786    3008.9175 
  382600    1185.3787    99.801655      2204118          147  0.007193656    225.58228    3031.0929 
  382700    1262.4567    101.62958      2204118          147  0.007193656    210.18608    3198.1222 
  382800    1257.8948     107.8866      2204118          147  0.007193656    260.25826    3237.3973 
  382900    1176.0586    95.247776      2204118          147  0.007193656    197.80012    2981.2523 
  383000    1185.7971    91.196854      2204118          147  0.007193656    166.08259    2972.5835 
  383100    1207.4576     94.30781      2204118          147  0.007193656    183.33052    3041.0967 
  383200    1234.5448    91.986575      2204118          147  0.007193656    156.00068    3077.8758 
  383300    1158.0576    95.190876      2204118          147  0.007193656      207.939     2948.787 
  383400    1146.5571    90.145612      2204118          147  0.007193656    172.60151    2886.2307 
  383500    1212.1267    101.46243      2204118          147  0.007193656    231.96627    3100.7832 
  383600    1232.4584    103.60299      2204118          147  0.007193656    239.27718    3156.2144 
  383700    1209.9119    96.386792      2204118          147  0.007193656    193.71409    3057.2891 
  383800    1166.0658    93.886714      2204118          147  0.007193656    192.07599    2951.8775 
  383900    1183.3272    94.506776      2204118          147  0.007193656    189.58673    2990.2419 
  384000    1280.0832    100.31411      2204118          147  0.007193656    198.33165    3227.9854 
  384100    1247.5129    98.794111      2204118          147  0.007193656    199.30864    3151.8762 
  384200    1178.5499    101.44252      2204118          147  0.007193656    245.59416    3034.9428 
  384300    1212.8442    90.931579      2204118          147  0.007193656    155.11851    3025.6335 
  384400    1175.9465    96.750853      2204118          147  0.007193656    213.26339    2996.4503 
  384500    1196.0104     92.98341      2204118          147  0.007193656    176.33719    3007.0105 
  384600    1219.6933    98.512331      2204118          147  0.007193656     210.5357    3097.2608 
  384700    1258.0113     91.27015      2204118          147  0.007193656    141.60701    3119.0219 
  384800    1149.0697    95.312166      2204118          147  0.007193656    211.03102    2930.6068 
  384900     1167.969    95.219573      2204118          147  0.007193656    202.61176    2966.9177 
  385000    1212.5944    95.904882      2204118          147  0.007193656    193.22062    3063.1444 
  385100    1224.2942    91.454629      2204118          147  0.007193656    156.52177    3054.1362 
  385200    1183.3629    92.124778      2204118          147  0.007193656    175.15559    2975.8954 
  385300    1183.9851    94.195148      2204118          147  0.007193656    187.48339    2989.6958 
  385400    1182.7926    101.03434      2204118          147  0.007193656    239.22783    3038.6178 
  385500    1206.7755    100.21339      2204118          147  0.007193656    223.42593    3079.5778 
  385600    1204.2864    102.01614      2204118          147  0.007193656    238.06575    3088.3264 
  385700    1196.0553    100.27177      2204118          147  0.007193656    228.72257    3059.5023 
  385800    1176.6352    95.416854      2204118          147  0.007193656       199.22    2984.0369 
  385900     1164.624    99.744051      2204118          147  0.007193656    236.17079      2992.56 
  386000    1255.4441    97.394177      2204118          147  0.007193656    184.75849    3156.0974 
  386100    1217.1158    102.45843      2204118          147  0.007193656    237.18819     3117.813 
  386200    1163.4047    100.04978      2204118          147  0.007193656    238.31279    2991.8161 
  386300    1201.4817    94.245777      2204118          147  0.007193656    183.05304    3026.6756 
  386400    1308.8863    101.17816      2204118          147  0.007193656    199.19386    3297.0177 
  386500    1255.0197     97.59306      2204118          147  0.007193656    189.68688    3160.0213 
  386600    1199.1109    94.278411      2204118          147  0.007193656     183.1236    3021.1351 
  386700      1172.39    94.732281      2204118          147  0.007193656    193.49405    2968.2635 
  386800    1186.8106    102.44431      2204118          147  0.007193656    245.24654    3054.1463 
  386900    1267.9948    98.134903      2204118          147  0.007193656    181.50466    3182.5481 
  387000    1198.2432    100.43014      2204118          147  0.007193656    223.41647    3059.3743 
  387100    1165.4615    102.06313      2204118          147  0.007193656    247.24829    3005.6197 
  387200    1207.6124    97.862771      2204118          147  0.007193656    200.50419    3058.6368 
  387300      1166.62    111.55005      2204118          147  0.007193656    319.58819    3080.7015 
  387400    1260.8048    101.25159      2204118          147  0.007193656    207.64768    3191.6741 
  387500    1237.4983     98.75073      2204118          147  0.007193656    199.61348    3128.4789 
  387600    1153.7013    95.624669      2204118          147  0.007193656    208.40032     2938.938 
  387700    1188.9756    93.492414      2204118          147  0.007193656    180.58292    2994.6067 
  387800    1225.2981     98.29765      2204118          147  0.007193656    203.61666     3103.607 
  387900    1217.2222    103.52573      2204118          147  0.007193656     247.2146    3128.0912 
  388000    1177.4589    90.167012      2204118          147  0.007193656    161.07572     2947.842 
  388100     1145.771    86.455877      2204118          147  0.007193656    143.94206    2855.7107 
  388200    1161.8205    101.46004      2204118          147  0.007193656    249.37496    2999.1288 
  388300    1222.5075    101.24417      2204118          147  0.007193656    224.88579    3118.2715 
  388400    1207.3098    100.67622      2204118          147  0.007193656    227.97956     3085.396 
  388500    1182.1002    93.622326      2204118          147  0.007193656    185.03639    2982.7876 
  388600     1157.732    90.094174      2204118          147  0.007193656     166.4188    2906.4962 
  388700    1168.8496    98.902544      2204118          147  0.007193656    226.82177    2993.2121 
  388800    1246.8518    102.36462      2204118          147  0.007193656    221.81152    3172.8144 
  388900    1202.4464     108.7571      2204118          147  0.007193656    284.34915     3130.255 
  389000     1180.197    102.33773      2204118          147  0.007193656    244.24244    3037.4893 
  389100    1170.4801      96.3737      2204118          147  0.007193656    205.67007    2975.9192 
  389200    1184.8317    93.866526      2204118          147  0.007193656    182.59096     2986.807 
  389300     1229.932    98.616368      2204118          147  0.007193656    201.06198    3112.0199 
  389400    1241.7224    99.484835      2204118          147  0.007193656    202.29433    3141.1572 
  389500    1167.5002    97.655768      2204118          147  0.007193656    215.08957     2978.286 
  389600    1159.7288    98.020575      2204118          147  0.007193656    221.41968    2966.2231 
  389700    1208.1035    98.803524      2204118          147  0.007193656    209.60975    3068.9047 
  389800     1188.134    106.88032      2204118          147  0.007193656    279.01146    3091.0432 
  389900    1197.4509    105.92199      2204118          147  0.007193656    270.92494    3105.0076 
  390000    1233.0899    90.495632      2204118          147  0.007193656    143.20756    3061.6394 
  390100      1123.43    94.346912      2204118          147  0.007193656    212.67942    2871.5723 
  390200    1170.4208     91.50619      2204118          147  0.007193656    171.69912     2941.808 
  390300    1195.8177    97.335521      2204118          147  0.007193656    206.28957     3036.507 
  390400    1228.0892    92.571478      2204118          147  0.007193656    158.76843    3065.3647 
  390500    1185.9977    92.678132      2204118          147  0.007193656    175.52439       2982.5 
  390600    1143.7548     91.90414      2204118          147  0.007193656    186.42343    2893.4201 
  390700    1216.5276    90.009028      2204118          147  0.007193656     147.2408    3026.4735 
  390800    1241.0517    98.874776      2204118          147  0.007193656    204.49722    3141.7728 
  390900    1206.8433    95.532402      2204118          147  0.007193656     189.9527    3046.2649 
  391000    1160.0556    92.286949      2204118          147  0.007193656      181.659    2927.2359 
  391100    1200.2567    89.917751      2204118          147  0.007193656    149.91279    2990.6363 
  391200    1277.9956    96.982258      2204118          147  0.007193656    175.03828    3199.7512 
  391300     1311.361    102.31448      2204118          147  0.007193656    201.21834    3304.8992 
  391400    1184.9208    98.005114      2204118          147  0.007193656    213.48941    3017.9164 
  391500    1152.2832    99.649125      2204118          147  0.007193656    238.25599    2965.4374 
  391600     1214.182    98.399998      2204118          147  0.007193656    207.25755    3080.9389 
  391700    1248.4331     94.67416      2204118          147  0.007193656    167.47885    3122.2243 
  391800     1162.786    95.020112      2204118          147  0.007193656    200.23103      2952.27 
  391900    1164.0523    94.310258      2204118          147  0.007193656    192.82295    2947.8592 
  392000    1209.2849    95.798992      2204118          147  0.007193656    186.92181    3049.0129 
  392100    1211.6228    97.214244      2204118          147  0.007193656    194.58378    3062.2081 
  392200    1169.6598    106.30605      2204118          147  0.007193656    276.89232       3045.2 
  392300    1235.3485    101.34711      2204118          147  0.007193656    217.00468    3140.7821 
  392400    1295.9262    103.38543      2204118          147  0.007193656    214.14542    3281.2957 
  392500    1199.1903    100.41031      2204118          147  0.007193656    230.69769    3068.8972 
  392600    1183.7828    91.298321      2204118          147  0.007193656    170.82822    2972.5618 
  392700    1201.0497     86.32828      2204118          147  0.007193656    127.47555    2970.0757 
  392800    1170.6808    96.218089      2204118          147  0.007193656    209.91018    2980.6345 
  392900    1228.9102    101.66083      2204118          147  0.007193656    224.97178    3133.5111 
  393000    1262.4299    103.19149      2204118          147  0.007193656    223.73825    3211.6108 
  393100     1197.152    95.134583      2204118          147  0.007193656    188.55626    3021.9315 
  393200    1173.4381    94.632742      2204118          147  0.007193656    193.29094    2970.5411 
  393300    1193.3413     100.5031      2204118          147  0.007193656    229.14136    3053.4977 
  393400    1207.9392    110.33865      2204118          147  0.007193656    298.00457    3156.9105 
  393500    1240.2226    101.77264      2204118          147  0.007193656    221.48428    3156.7975 
  393600    1146.5453    95.841498      2204118          147  0.007193656    211.87557    2925.4769 
  393700    1170.2308    92.205354      2204118          147  0.007193656    176.24537    2945.9045 
  393800    1208.6983    95.781279      2204118          147  0.007193656     188.8331    3049.5358 
  393900     1215.376    99.165249      2204118          147  0.007193656    212.22883    3088.7361 
  394000     1187.445    98.380907      2204118          147  0.007193656    216.84456    3027.2456 
  394100    1112.7373    95.285364      2204118          147  0.007193656    221.26158    2854.8472 
  394200    1178.3078    93.696681      2204118          147  0.007193656     186.2234    2974.9989 
  394300    1222.8217    96.830011      2204118          147  0.007193656    194.02648     3088.156 
  394400    1203.4413    97.424555      2204118          147  0.007193656    205.55523    3053.8158 
  394500    1173.7614    94.581463      2204118          147  0.007193656    192.94594    2970.9613 
  394600    1142.7189    99.346763      2204118          147  0.007193656    239.99628    2944.5413 
  394700    1280.9648    91.875782      2204118          147  0.007193656    134.42845    3166.1689 
  394800     1224.292    93.746112      2204118          147  0.007193656    169.85197    3067.4611 
  394900    1170.4161    96.509573      2204118          147  0.007193656    209.39935     2979.497 
  395000    1195.9447    97.413066      2204118          147  0.007193656     208.4466    3038.9646 
  395100    1246.6639    94.401753      2204118          147  0.007193656    167.60826    3118.1664 
  395200    1169.1665    95.580467      2204118          147  0.007193656    202.21429    2969.3544 
  395300    1135.4424    93.397768      2204118          147  0.007193656    196.26319    2883.5865 
  395400     1204.736    96.922746      2204118          147  0.007193656    197.73561    3049.0604 
  395500    1213.5363    101.50476      2204118          147  0.007193656    228.66377    3100.8169 
  395600      1196.93    100.64183      2204118          147  0.007193656    227.14933    3059.9993 
  395700    1185.7196    94.726148      2204118          147  0.007193656    188.38524    2994.7028 
  395800    1141.0398    93.666216      2204118          147  0.007193656    200.09882    2900.6697 
  395900    1164.0465    95.715659      2204118          147  0.007193656     206.7573    2961.7797 
  396000    1241.6613     98.64448      2204118          147  0.007193656    199.71377    3138.4319 
  396100    1224.2342    97.531693      2204118          147  0.007193656    197.55728    3095.0298 
  396200    1172.6597     97.74182      2204118          147  0.007193656    217.78308    2993.1909 
  396300    1194.8101    93.605181      2204118          147  0.007193656    179.45381    3007.2864 
  396400    1234.2817    97.061674      2204118          147  0.007193656    189.96223    3111.2147 
  396500    1273.9879    105.87634      2204118          147  0.007193656    238.63356    3253.8613 
  396600     1204.442    105.11422      2204118          147  0.007193656    257.84582    3108.4749 
  396700    1177.3429    96.116763      2204118          147  0.007193656    200.71417    2987.2059 
  396800    1175.4526    97.664987      2204118          147  0.007193656    214.30928    2996.3272 
  396900    1249.6827     92.16603      2204118          147  0.007193656    147.25254    3104.9555 
  397000    1227.4495    95.800034      2204118          147  0.007193656    183.76251    3088.8448 
  397100    1140.0957    93.018579      2204118          147  0.007193656    195.82758    2894.1642 
  397200    1176.4094    91.998047      2204118          147  0.007193656    175.87351    2960.1559 
  397300     1237.753    93.200579      2204118          147  0.007193656      160.902    3090.3702 
  397400    1193.8123    102.43817      2204118          147  0.007193656    244.19963    3069.6707 
  397500    1188.8018    99.452385      2204118          147  0.007193656    221.54983    3035.1621 
  397600    1176.5377    95.246956      2204118          147  0.007193656    194.69944    2979.2855 
  397700    1190.7222    93.628189      2204118          147  0.007193656     178.6587    2996.8162 
  397800    1204.8618    103.35584      2204118          147  0.007193656     247.3656    3098.9881 
  397900    1253.4777    99.968075      2204118          147  0.007193656    204.36215     3171.047 
  398000    1199.4337    89.953119      2204118          147  0.007193656    151.36985    2990.1454 
  398100    1164.1941    87.312034      2204118          147  0.007193656    145.74228    2901.1139 
  398200    1186.7976     92.47895      2204118          147  0.007193656    176.31808     2985.187 
  398300    1223.6299    95.199468      2204118          147  0.007193656    183.19526    3079.2375 
  398400    1206.9647    96.663194      2204118          147  0.007193656    200.49802    3057.0977 
  398500    1147.9029    88.620137      2204118          147  0.007193656    161.09301    2877.9074 
  398600    1114.0288    87.994406      2204118          147  0.007193656    168.40907    2805.0513 
  398700    1171.4519     95.09392      2204118          147  0.007193656    199.89914    2972.4483 
  398800    1209.4616    97.202567      2204118          147  0.007193656    202.10186     3064.611 
  398900    1235.0855    94.867738      2204118          147  0.007193656    175.91673    3099.0717 
  399000    1192.0336    89.831815      2204118          147  0.007193656    153.40236    2974.6637 
  399100      1143.44    90.260171      2204118          147  0.007193656    171.96156    2878.2133 
  399200    1188.6691    94.648546      2204118          147  0.007193656    187.21068     3000.509 
  399300    1205.7194    98.131072      2204118          147  0.007193656    208.51596    3062.1682 
  399400     1207.335    94.588323      2204118          147  0.007193656    181.00201    3038.4781 
  399500    1172.2888    97.553237      2204118          147  0.007193656    215.67629    2990.2062 
  399600    1213.4658    97.030267      2204118          147  0.007193656    197.62321    3069.6093 
  399700    1275.1733    95.833603      2204118          147  0.007193656    166.38934    3184.4226 
  399800    1181.3282    96.375129      2204118          147  0.007193656    202.77275    2998.6969 
  399900    1157.9631    98.965518      2204118          147  0.007193656    229.14052     2969.765 
  400000    1209.8123    98.612252      2204118          147  0.007193656    208.51866    3071.8578 
  400100    1236.4153    93.509748      2204118          147  0.007193656    163.02159    3089.3239 
Loop time of 26.4458 on 1 procs for 400000 steps with 795 atoms

Performance: 326.706 ns/day, 0.073 hours/ns, 15125.265 timesteps/s
96.7% CPU use with 1 MPI tasks x no OpenMP threads

MPI task timing breakdown:
Section |  min time  |  avg time  |  max time  |%varavg| %total
---------------------------------------------------------------
Pair    | 11.515     | 11.515     | 11.515     |   0.0 | 43.54
Neigh   | 5.4943     | 5.4943     | 5.4943     |   0.0 | 20.78
Comm    | 0.94332    | 0.94332    | 0.94332    |   0.0 |  3.57
Output  | 1.6683     | 1.6683     | 1.6683     |   0.0 |  6.31
Modify  | 6.144      | 6.144      | 6.144      |   0.0 | 23.23
Other   |            | 0.6813     |            |       |  2.58

Nlocal:            795 ave         795 max         795 min
Histogram: 1 0 0 0 0 0 0 0 0 0
Nghost:            156 ave         156 max         156 min
Histogram: 1 0 0 0 0 0 0 0 0 0
Neighs:           1604 ave        1604 max        1604 min
Histogram: 1 0 0 0 0 0 0 0 0 0

Total # of neighbors = 1604
Ave neighs/atom = 2.0176101
Neighbor list builds = 18055
Dangerous builds = 19

write_data graphene_single_layer_LJ_795C_after_temp_1200K.data
System init for write_data ...
  generated 0 of 0 mixed pair_coeff terms from geometric mixing rule
Total wall time: 0:00:26
