# System definition
read_data graphene_single_layer_x-45_y-45_795_C.data
Reading data file ...
  orthogonal box = (-51 -51 -51) to (96 96 51)
  1 by 1 by 1 MPI processor grid
  reading atoms ...
  795 atoms
  read_data CPU = 0.012 seconds
pair_style lj/cut 6
pair_coeff      1 1 0.066047 3.4

# Virtual force wall to keep the cylinder shape
#region myCylinder cylinder z 0. 0. 20.3 -22.079997 505.920003 units box
#fix wall all wall/region myCylinder lj93 1.0 1.0 2.5

# Minimization
timestep 0.25
thermo 100
thermo_style custom step temp press vol lx density pe etotal
dump 2 all custom 1000 graphene_single_layer_LJ_795C_after_temp_1000K.lammpstrj id type x y z
min_style cg
minimize 1.0e-6 1.0e-6 100 1000
WARNING: Using 'neigh_modify every 1 delay 0 check yes' setting during minimization (../min.cpp:187)
  generated 0 of 0 mixed pair_coeff terms from geometric mixing rule
Neighbor list info ...
  update every 1 steps, delay 0 steps, check yes
  max neighbors/atom: 10000, page size: 100000
  master list distance cutoff = 6.4
  ghost atom cutoff = 6.4
  binsize = 3.2, bins = 46 46 32
  1 neighbor lists, perpetual/occasional/extra = 1 0 0
  (1) pair lj/cut, perpetual
      attributes: half, newton on
      pair build: half/bin/atomonly/newton
      stencil: half/bin/3d
      bin: standard
Per MPI rank memory allocation (min/avg/max) = 5.96 | 5.96 | 5.96 Mbytes
Step Temp Press Volume Lx Density PotEng TotEng 
       0            0    1335313.5      2204118          147  0.007193656     10699602     10699602 
     100            0     61841.43      2204118          147  0.007193656    488621.59    488621.59 
Loop time of 0.0646162 on 1 procs for 100 steps with 795 atoms

100.0% CPU use with 1 MPI tasks x no OpenMP threads

Minimization stats:
  Stopping criterion = max iterations
  Energy initial, next-to-last, final = 
      10699602.3573369   495470.853828546   488621.590421788
  Force two-norm initial, final = 694694.42 29375.63
  Force max component initial, final = 79169.705 9280.0147
  Final line search alpha, max atom move = 3.8811533e-05 0.36017159
  Iterations, force evaluations = 100 117

MPI task timing breakdown:
Section |  min time  |  avg time  |  max time  |%varavg| %total
---------------------------------------------------------------
Pair    | 0.041947   | 0.041947   | 0.041947   |   0.0 | 64.92
Neigh   | 0.016896   | 0.016896   | 0.016896   |   0.0 | 26.15
Comm    | 0.0004171  | 0.0004171  | 0.0004171  |   0.0 |  0.65
Output  | 7.58e-05   | 7.58e-05   | 7.58e-05   |   0.0 |  0.12
Modify  | 0          | 0          | 0          |   0.0 |  0.00
Other   |            | 0.00528    |            |       |  8.17

Nlocal:            795 ave         795 max         795 min
Histogram: 1 0 0 0 0 0 0 0 0 0
Nghost:              0 ave           0 max           0 min
Histogram: 1 0 0 0 0 0 0 0 0 0
Neighs:          13073 ave       13073 max       13073 min
Histogram: 1 0 0 0 0 0 0 0 0 0

Total # of neighbors = 13073
Ave neighs/atom = 16.444025
Neighbor list builds = 35
Dangerous builds = 0
#timestep 0.25
fix 1 all nvt temp 1000.0 1000.0 $(100.0*dt)
fix 1 all nvt temp 1000.0 1000.0 25
run 400000
  generated 0 of 0 mixed pair_coeff terms from geometric mixing rule
Per MPI rank memory allocation (min/avg/max) = 4.835 | 4.835 | 4.835 Mbytes
Step Temp Press Volume Lx Density PotEng TotEng 
     100            0     61841.43      2204118          147  0.007193656    488621.59    488621.59 
     200     30095.23    20860.064      2204118          147  0.007193656    150957.45    222185.73 
     300    9389.2553    9298.5952      2204118          147  0.007193656    67736.216     89958.36 
     400    4661.6155    5740.7354      2204118          147  0.007193656    41677.983    52710.923 
     500    2946.9099     4054.812      2204118          147  0.007193656    29203.582     36178.22 
     600    2126.7658    3066.8526      2204118          147  0.007193656      21861.1    26894.651 
     700    1665.5821    2419.9865      2204118          147  0.007193656    17050.863    20992.901 
     800    1387.9143    1962.6441      2204118          147  0.007193656    13649.649    16934.513 
     900    1214.2506    1621.6179      2204118          147  0.007193656    11114.273    13988.116 
    1000    1103.7096    1358.0153      2204118          147  0.007193656    9156.0388    11768.258 
    1100    1038.0492    1148.3721      2204118          147  0.007193656    7598.9511    10055.768 
    1200    1002.4546    978.59148      2204118          147  0.007193656    6338.9659    8711.5385 
    1300    990.19618    837.64446      2204118          147  0.007193656    5292.9594    7636.5193 
    1400    986.90017    719.41471      2204118          147  0.007193656    4418.8678    6754.6268 
    1500    985.34158    619.40553      2204118          147  0.007193656    3684.4118     6016.482 
    1600    981.74504    535.70647      2204118          147  0.007193656    3075.9317    5399.4897 
    1700    984.77045    464.73067      2204118          147  0.007193656    2562.1189    4892.8374 
    1800    990.45701    403.94073      2204118          147  0.007193656    2124.9857    4469.1629 
    1900    990.52853    351.88801      2204118          147  0.007193656    1756.2244    4100.5708 
    2000    987.39409    307.67256      2204118          147  0.007193656    1447.7742    3784.7022 
    2100    989.41019    270.16908      2204118          147  0.007193656    1187.9158    3529.6154 
    2200    995.27298    238.16239      2204118          147  0.007193656    967.87894    3323.4544 
    2300    996.88126    210.53461      2204118          147  0.007193656    781.59048    3140.9723 
    2400     993.4904     186.6615      2204118          147  0.007193656    624.63126    2975.9878 
    2500    992.35126     166.3048      2204118          147  0.007193656    492.32916    2840.9896 
    2600    996.59571    149.04347      2204118          147  0.007193656    380.38094     2739.087 
    2700      1000.22    134.13383      2204118          147  0.007193656    285.49943    2652.7833 
    2800    998.01728    121.07016      2204118          147  0.007193656    205.94183    2568.0124 
    2900      994.555    109.79348      2204118          147  0.007193656    139.39778    2493.2739 
    3000    996.33362    100.36602      2204118          147  0.007193656    84.252082    2442.3378 
    3100    1000.9083    92.408331      2204118          147  0.007193656    38.401631    2407.3146 
    3200    1001.0712     85.39217      2204118          147  0.007193656    0.5703606    2369.8687 
    3300     997.0189    79.191451      2204118          147  0.007193656   -30.190617     2329.517 
    3400    995.96264    74.003837      2204118          147  0.007193656    -55.18623    2302.0215 
    3500    999.96508    69.830038      2204118          147  0.007193656   -74.858431    2291.8221 
    3600    1002.5397    66.217919      2204118          147  0.007193656   -90.490958    2282.2832 
    3700    999.56757    62.869533      2204118          147  0.007193656   -102.92352    2262.8162 
    3800    996.31829    59.941456      2204118          147  0.007193656   -113.00545     2245.044 
    3900    998.42604      57.6358      2204118          147  0.007193656   -121.22408    2241.8139 
    4000     1002.448    55.755824      2204118          147  0.007193656   -127.56714    2244.9898 
    4100    1001.7003    53.937308      2204118          147  0.007193656   -132.23468    2238.5528 
    4200    997.55245    52.201479      2204118          147  0.007193656   -135.63264    2225.3378 
    4300    997.08887    50.876353      2204118          147  0.007193656    -137.7255    2222.1477 
    4400     1001.167    49.963508      2204118          147  0.007193656   -138.83526    2230.6898 
    4500    1002.9713    49.106037      2204118          147  0.007193656   -139.08578    2234.7099 
    4600    999.48746    48.137959      2204118          147  0.007193656   -138.60907    2226.9411 
    4700    996.64941    47.331827      2204118          147  0.007193656   -137.53698    2221.2961 
    4800    999.27826    46.905908      2204118          147  0.007193656   -135.96543    2229.0896 
    4900    1002.9945    46.632216      2204118          147  0.007193656   -133.92483    2239.9257 
    5000    1001.5399    46.183493      2204118          147  0.007193656   -131.61492    2238.7928 
    5100    997.39847    45.673148      2204118          147  0.007193656     -129.065     2231.541 
    5200    997.57819    45.433427      2204118          147  0.007193656   -126.35072    2234.6806 
    5300    1001.8042    45.444517      2204118          147  0.007193656   -123.46639    2247.5669 
    5400    1002.9609    45.346265      2204118          147  0.007193656   -120.51605     2253.255 
    5500    999.09044    45.040644      2204118          147  0.007193656   -117.47984    2247.1306 
    5600    996.74398     44.84166      2204118          147  0.007193656   -114.42976    2244.6272 
    5700    999.88362    44.939705      2204118          147  0.007193656   -111.37278     2255.115 
    5800    1003.2384    45.073092      2204118          147  0.007193656   -108.30729    2266.1205 
    5900    1001.1299    44.959247      2204118          147  0.007193656   -105.26309    2264.1744 
    6000    997.12796    44.770331      2204118          147  0.007193656   -102.26036    2257.7054 
    6100    997.98556    44.835539      2204118          147  0.007193656   -99.300272    2262.6952 
    6200    1002.2736    45.081954      2204118          147  0.007193656   -96.393535    2275.7506 
    6300    1002.7539    45.152372      2204118          147  0.007193656   -93.547837    2279.7331 
    6400    998.60497    45.003663      2204118          147  0.007193656   -90.792641    2272.6688 
    6500    996.83788    44.980501      2204118          147  0.007193656   -88.099414    2271.1798 
    6600    1000.4334    45.228014      2204118          147  0.007193656   -85.466095    2282.3228 
    6700    1003.3421    45.445746      2204118          147  0.007193656   -82.933953    2291.7393 
    6800    1000.6312    45.394121      2204118          147  0.007193656   -80.448734    2287.8083 
    6900    996.88669    45.294573      2204118          147  0.007193656   -78.060236    2281.3345 
    7000     998.4202    45.456265      2204118          147  0.007193656   -75.764598    2287.2596 
    7100    1002.6615    45.752044      2204118          147  0.007193656   -73.564071    2299.4982 
    7200    1002.4423    45.832836      2204118          147  0.007193656   -71.401017    2301.1425 
    7300    998.12652    45.715396      2204118          147  0.007193656   -69.283151    2293.0459 
    7400    997.00321    45.753023      2204118          147  0.007193656   -67.273009    2292.3975 
    7500    1000.9676    46.036961      2204118          147  0.007193656   -65.387256     2303.666 
    7600    1003.3424    46.240983      2204118          147  0.007193656   -63.589698    2311.0841 
    7700    1000.0967    46.168503      2204118          147  0.007193656   -61.851175    2305.1409 
    7800    996.72018    46.087978      2204118          147  0.007193656    -60.18204    2298.8186 
    7900    998.90166    46.279616      2204118          147  0.007193656   -58.561296    2305.6024 
    8000    1002.9846    46.558667      2204118          147  0.007193656   -57.075366    2316.7517 
    8100    1002.0712    46.588936      2204118          147  0.007193656    -55.69844    2315.9667 
    8200    997.70134    46.453517      2204118          147  0.007193656   -54.497663    2306.8251 
    8300    996.41398    46.796058      2204118          147  0.007193656   -51.196668    2307.0793 
    8400    1000.4227     47.85868      2204118          147  0.007193656   -44.702203    2323.0615 
    8500    1002.4832    49.319991      2204118          147  0.007193656   -34.828174    2337.8123 
    8600    1000.3481    50.425363      2204118          147  0.007193656   -26.839084    2340.7479 
    8700     991.3405    53.430544      2204118          147  0.007193656   -2.6286627    2343.6395 
    8800    1004.8796    54.127171      2204118          147  0.007193656    -4.012704    2374.2994 
    8900    1006.1136    56.623647      2204118          147  0.007193656    12.510216    2393.7429 
    9000    999.18337    59.453956      2204118          147  0.007193656    34.644332    2399.4747 
    9100     997.9845    61.778932      2204118          147  0.007193656    51.391804    2413.3848 
    9200    1007.3914    60.873872      2204118          147  0.007193656    40.381432    2424.6383 
    9300      1001.47    59.620875      2204118          147  0.007193656    32.037097    2402.2795 
    9400     973.9634    64.413533      2204118          147  0.007193656    76.571381    2381.7121 
    9500    1018.1643    61.261424      2204118          147  0.007193656    35.329032    2445.0829 
    9600    1012.0839     65.52485      2204118          147  0.007193656     69.65987    2465.0228 
    9700    1001.4508    62.539105      2204118          147  0.007193656    49.896112    2420.0931 
    9800    969.04724    66.015055      2204118          147  0.007193656    86.043752    2379.5491 
    9900    1002.8378    66.837382      2204118          147  0.007193656    78.654432    2452.1341 
   10000    1030.3267    69.139607      2204118          147  0.007193656    84.888505    2523.4278 
   10100    1003.5353    70.674487      2204118          147  0.007193656    105.02587    2480.1563 
   10200    975.87632    68.727642      2204118          147  0.007193656    99.212676    2408.8808 
   10300    990.84813    67.004961      2204118          147  0.007193656    79.297322    2424.4002 
   10400    1010.2833    70.847574      2204118          147  0.007193656     99.82137    2490.9226 
   10500    1018.0338    71.584198      2204118          147  0.007193656    101.17751    2510.6225 
   10600    991.23997    72.924967      2204118          147  0.007193656    119.81587    2465.8461 
   10700    983.44109    73.798364      2204118          147  0.007193656    128.11843    2455.6906 
   10800    1022.4953    69.427424      2204118          147  0.007193656    80.412771     2500.417 
   10900    1002.4162    71.429939      2204118          147  0.007193656    102.50022    2474.9821 
   11000    981.28898    71.198331      2204118          147  0.007193656    106.69623    2429.1749 
   11100    983.10904    74.822973      2204118          147  0.007193656    132.29546    2459.0817 
   11200    1015.0708    78.679034      2204118          147  0.007193656    150.02073    2552.4529 
   11300    1049.7097    70.572004      2204118          147  0.007193656    77.742927    2562.1572 
   11400    978.51586    66.049255      2204118          147  0.007193656    70.263225    2386.1785 
   11500    923.64885    71.382206      2204118          147  0.007193656    128.85606    2314.9142 
   11600    1022.6478    72.833406      2204118          147  0.007193656    101.37029    2521.7355 
   11700      1063.91    80.468881      2204118          147  0.007193656    141.52722    2659.5502 
   11800    1004.6366    78.248677      2204118          147  0.007193656    145.27122    2523.0081 
   11900    948.13746    73.064674      2204118          147  0.007193656    127.64386    2371.6607 
   12000    974.82048    71.560616      2204118          147  0.007193656    106.59383     2413.763 
   12100     1026.028    77.435304      2204118          147  0.007193656    130.64729    2559.0126 
   12200    1043.6787    78.474035      2204118          147  0.007193656    131.08187    2601.2222 
   12300    993.10841    73.926375      2204118          147  0.007193656    114.99279    2465.4452 
   12400     947.1074    73.311914      2204118          147  0.007193656    125.24683    2366.8258 
   12500    983.03853     79.15914      2204118          147  0.007193656    154.12987    2480.7493 
   12600    1060.4051    83.007187      2204118          147  0.007193656    152.85929    2662.5871 
   12700     1027.442    85.688343      2204118          147  0.007193656    184.70762    2616.4194 
   12800     968.1302    79.749642      2204118          147  0.007193656    161.60547    2452.9404 
   12900    961.52232    77.991049      2204118          147  0.007193656    150.91619    2426.6118 
   13000    1020.7621    80.010551      2204118          147  0.007193656    144.07016    2559.9724 
   13100    1034.5681    84.614747      2204118          147  0.007193656    172.34317    2620.9207 
   13200    1014.0978    78.399888      2204118          147  0.007193656    131.74477    2531.8741 
   13300    951.65674     79.97984      2204118          147  0.007193656    165.29949    2417.6456 
   13400    957.35207    88.682896      2204118          147  0.007193656    226.05713    2491.8828 
   13500    1049.2078    96.736682      2204118          147  0.007193656     249.7184    2732.9448 
   13600    1060.1594    100.97184      2204118          147  0.007193656    275.75602    2784.9024 
   13700    957.29513     104.5742      2204118          147  0.007193656    340.34711     2606.038 
   13800    985.62302    91.756147      2204118          147  0.007193656    231.70805    2564.4443 
   13900    998.28474    95.667061      2204118          147  0.007193656    256.68959    2619.3932 
   14000     1016.017    98.770313      2204118          147  0.007193656    271.41255    2676.0842 
   14100    991.66572    106.31434      2204118          147  0.007193656    336.70694    2683.7448 
   14200    1028.3334    97.786829      2204118          147  0.007193656    259.44617    2693.2679 
   14300    1002.4574    96.476175      2204118          147  0.007193656    261.57507    2634.1544 
   14400    982.96601    92.513461      2204118          147  0.007193656    236.64815    2563.0959 
   14500    957.17647    103.58538      2204118          147  0.007193656    328.65028    2594.0603 
   14600    1031.4743      103.188      2204118          147  0.007193656    300.29436    2741.5497 
   14700    1053.9308    96.012446      2204118          147  0.007193656    238.03795    2732.4425 
   14800    978.38417    91.009005      2204118          147  0.007193656    226.58952    2542.1931 
   14900    933.72151    92.000115      2204118          147  0.007193656    248.16072    2458.0584 
   15000    988.33565     102.8061      2204118          147  0.007193656    307.45666    2646.6131 
   15100    1081.0578    111.99244      2204118          147  0.007193656    341.60208    2900.2098 
   15200    1035.5063    111.40191      2204118          147  0.007193656    353.21137    2804.0095 
   15300    944.96318    102.23314      2204118          147  0.007193656    317.29849    2553.8025 
   15400    940.96301    101.39887      2204118          147  0.007193656    315.13774    2542.1744 
   15500    1054.4706    98.974355      2204118          147  0.007193656    255.19389    2750.8762 
   15600    1044.2432    105.35689      2204118          147  0.007193656    306.29428    2777.7706 
   15700    970.75756    103.22011      2204118          147  0.007193656    316.31897    2613.8722 
   15800    958.37175    99.878878      2204118          147  0.007193656    292.48171    2560.7207 
   15900    1006.2581    104.74114      2204118          147  0.007193656    311.82285    2693.3975 
   16000    1046.7674    107.19181      2204118          147  0.007193656    316.37008    2793.8206 
   16100    1012.6894    103.03875      2204118          147  0.007193656    297.96308     2694.759 
   16200    970.00329     98.15702      2204118          147  0.007193656    279.93144    2575.6995 
   16300    987.54037     93.13085      2204118          147  0.007193656      237.984    2575.2582 
   16400     994.4829     99.17503      2204118          147  0.007193656      282.952    2636.6575 
   16500    1044.9965    93.872621      2204118          147  0.007193656    224.66385    2697.9232 
   16600    987.13153    99.955375      2204118          147  0.007193656    291.76546     2628.072 
   16700    961.97623    100.74693      2204118          147  0.007193656    306.03191    2582.8018 
   16800    1014.9876    94.227717      2204118          147  0.007193656    235.09406    2637.3293 
   16900      1027.88    94.863046      2204118          147  0.007193656    236.49819    2669.2468 
   17000    1006.8665       91.902      2204118          147  0.007193656    223.93727    2606.9518 
   17100    974.98999    86.513125      2204118          147  0.007193656    195.82836    2503.3988 
   17200    948.57253    93.563442      2204118          147  0.007193656    257.94003    2502.9866 
   17300     1026.581    96.136418      2204118          147  0.007193656    247.69738    2677.3714 
   17400    1061.4189    94.732826      2204118          147  0.007193656    223.68765    2735.8149 
   17500    979.74832    94.153786      2204118          147  0.007193656    249.33116    2568.1634 
   17600     958.2113    87.860705      2204118          147  0.007193656    210.99024    2478.8495 
   17700    977.95431    92.394767      2204118          147  0.007193656    237.29462    2551.8809 
   17800    1039.4125    96.455528      2204118          147  0.007193656    245.75212    2705.7953 
   17900    1048.1444    91.861763      2204118          147  0.007193656    208.83771    2689.5473 
   18000     971.5319    85.515977      2204118          147  0.007193656    190.11889    2489.5048 
   18100    945.50161    82.536232      2204118          147  0.007193656    178.11998    2415.8984 
   18200    995.13231    88.773271      2204118          147  0.007193656    206.90267    2562.1452 
   18300    1076.8628    87.634944      2204118          147  0.007193656    168.39531    2717.0746 
   18400    1005.7809    87.169516      2204118          147  0.007193656    190.77042    2571.2155 
   18500    943.71523    83.418138      2204118          147  0.007193656     183.9613    2417.5118 
   18600    973.53009     86.83134      2204118          147  0.007193656    199.10008    2503.2153 
   18700    1051.5893    89.441279      2204118          147  0.007193656    189.02254    2677.8854 
   18800    1044.9201    87.544342      2204118          147  0.007193656    177.01547    2650.0939 
   18900    948.79508     89.86678      2204118          147  0.007193656    230.05508    2475.6283 
   19000    962.89213    86.655887      2204118          147  0.007193656    200.31854    2479.2562 
   19100    1033.4364    88.394113      2204118          147  0.007193656    187.55634    2633.4555 
   19200    1034.6375    91.781684      2204118          147  0.007193656    211.80716    2660.5491 
   19300    978.98045    90.509977      2204118          147  0.007193656    223.50806     2540.523 
   19400    980.01832    82.155146      2204118          147  0.007193656     162.6607     2482.132 
   19500    999.87302    81.582197      2204118          147  0.007193656    154.10471    2520.5674 
   19600    1011.8986    84.757657      2204118          147  0.007193656    175.05904    2569.9834 
   19700    1001.1003     85.96846      2204118          147  0.007193656    187.26818    2556.6354 
   19800    995.20718    84.127898      2204118          147  0.007193656    175.65938    2531.0791 
   19900    998.93972    82.091739      2204118          147  0.007193656    159.56851    2523.8223 
   20000    1005.1667    80.642709      2204118          147  0.007193656    146.54599    2525.5376 
   20100    1002.4896    80.325539      2204118          147  0.007193656    145.49698    2518.1524 
   20200     979.1604    85.721833      2204118          147  0.007193656    194.47876    2511.9195 
   20300    1008.6077    84.376379      2204118          147  0.007193656    172.61811    2559.7536 
   20400    1020.4593    83.119162      2204118          147  0.007193656    158.60552     2573.791 
   20500    989.17587    84.781127      2204118          147  0.007193656    182.91265    2524.0577 
   20600    992.36562    82.641884      2204118          147  0.007193656    166.59298    2515.2874 
   20700    1013.1459    79.951449      2204118          147  0.007193656    140.02658     2537.903 
   20800    1009.6122    77.955268      2204118          147  0.007193656    126.50614    2516.0192 
   20900    975.92401    81.577427      2204118          147  0.007193656      165.826     2475.607 
   21000    1007.0259    78.695215      2204118          147  0.007193656    132.17493    2515.5667 
   21100    1008.2345    83.040123      2204118          147  0.007193656    164.97082     2551.223 
   21200    1008.7461    81.752324      2204118          147  0.007193656    156.31758    2543.7808 
   21300     1003.761    76.504405      2204118          147  0.007193656    120.18754    2495.8521 
   21400    981.40413    75.651891      2204118          147  0.007193656    122.75388     2445.505 
   21500    979.02339    78.991042      2204118          147  0.007193656    148.78776    2465.9043 
   21600    1023.4782    78.022552      2204118          147  0.007193656     124.1951    2546.5257 
   21700     1014.195    79.690656      2204118          147  0.007193656    140.17148    2540.5308 
   21800    993.40826     75.76242      2204118          147  0.007193656    117.45941    2468.6215 
   21900    969.96224    78.231766      2204118          147  0.007193656    143.15156    2438.8225 
   22000    997.60666    82.402782      2204118          147  0.007193656    162.31404    2523.4128 
   22100    1036.9761    83.909164      2204118          147  0.007193656    158.40392    2612.6808 
   22200    1007.8032    85.004051      2204118          147  0.007193656    177.71396    2562.9455 
   22300    966.02269    84.299605      2204118          147  0.007193656    188.31307      2474.66 
   22400    989.68735    81.214346      2204118          147  0.007193656    157.43851    2499.7941 
   22500    1024.7348     81.29725      2204118          147  0.007193656    147.02863    2572.3333 
   22600    1023.2133    78.540694      2204118          147  0.007193656    128.91554    2550.6192 
   22700    972.51737     77.26949      2204118          147  0.007193656    139.00229    2440.7206 
   22800    970.59786    77.314377      2204118          147  0.007193656    140.16799    2437.3433 
   22900    1013.8477    81.936507      2204118          147  0.007193656    160.85983    2560.3973 
   23000    1052.7531    78.394804      2204118          147  0.007193656    121.21044    2612.8277 
   23100    987.68403    76.984807      2204118          147  0.007193656    135.38793    2473.0021 
   23200    958.22886    73.379165      2204118          147  0.007193656    119.03496    2386.9357 
   23300    996.63825    75.664797      2204118          147  0.007193656    122.11112    2480.9178 
   23400    1042.6398     78.10057      2204118          147  0.007193656    120.94813    2588.6296 
   23500    1000.1062    83.576895      2204118          147  0.007193656    175.67548    2542.6899 
   23600    989.51207    78.605105      2204118          147  0.007193656     142.9622    2484.9029 
   23700    987.55413    75.945521      2204118          147  0.007193656    124.65121     2461.958 
   23800    985.96365    79.070013      2204118          147  0.007193656    147.29813    2480.8406 
   23900     993.9423    87.082108      2204118          147  0.007193656    203.86587    2556.2919 
   24000    1030.3587    86.147253      2204118          147  0.007193656    184.26037    2622.8754 
   24100    1020.5428    78.447789      2204118          147  0.007193656    131.34429    2546.7275 
   24200    958.98015    76.364519      2204118          147  0.007193656    139.21514     2408.894 
   24300    970.78017    75.693079      2204118          147  0.007193656     128.9748    2426.5816 
   24400    1017.4689    82.473539      2204118          147  0.007193656     162.2729    2570.3808 
   24500    1050.2339    80.989615      2204118          147  0.007193656    138.88179    2624.5367 
   24600    988.99109    77.114337      2204118          147  0.007193656    131.97336    2472.6811 
   24700    949.64111    75.111007      2204118          147  0.007193656    131.09738     2378.673 
   24800    1002.4394     75.71286      2204118          147  0.007193656    116.35638    2488.8931 
   24900    1033.0197    83.683133      2204118          147  0.007193656     165.3628    2610.2758 
   25000    1024.0808    80.956383      2204118          147  0.007193656    147.77249    2571.5292 
   25100    962.64477    78.779298      2204118          147  0.007193656    153.07807    2431.4303 
   25200    961.35813    79.904811      2204118          147  0.007193656    162.60379    2437.9108 
   25300     1039.814    78.918805      2204118          147  0.007193656    127.70973    2588.7032 
   25400    1034.2681    80.667817      2204118          147  0.007193656    143.28149     2591.149 
   25500    964.49569    81.650235      2204118          147  0.007193656    176.55115     2459.284 
   25600    967.22592    78.769053      2204118          147  0.007193656    153.48792    2442.6826 
   25700    1016.7643    79.780739      2204118          147  0.007193656    141.84289    2548.2831 
   25800    1020.2575    85.969459      2204118          147  0.007193656    185.37728    2600.0853 
   25900     1012.192    84.046792      2204118          147  0.007193656    173.41567    2569.0344 
   26000    1002.3018    78.269247      2204118          147  0.007193656     134.6589      2506.87 
   26100    985.33855    77.243907      2204118          147  0.007193656    133.21193    2465.2749 
   26200    988.32822      82.5376      2204118          147  0.007193656    171.99129    2511.1301 
   26300    1027.7861    82.572609      2204118          147  0.007193656    158.15479    2590.6812 
   26400    1010.0061    83.471571      2204118          147  0.007193656    172.23932    2562.6846 
   26500    977.61825    81.676716      2204118          147  0.007193656    170.58281    2484.3737 
   26600    970.68712    83.901375      2204118          147  0.007193656    188.05766    2485.4442 
   26700    1033.7972    82.514573      2204118          147  0.007193656    155.30501    2602.0581 
   26800     1038.751    79.854963      2204118          147  0.007193656    134.13941    2592.6171 
   26900    965.44411    80.648359      2204118          147  0.007193656    166.42455    2451.4021 
   27000    970.88553    80.158143      2204118          147  0.007193656    160.19879    2458.0549 
   27100    1011.3595    87.018318      2204118          147  0.007193656    197.84086    2591.4892 
   27200    1034.9196    87.429669      2204118          147  0.007193656    192.15021    2641.5598 
   27300     994.2336    83.418365      2204118          147  0.007193656    177.33898    2530.4545 
   27400    961.73091    78.967099      2204118          147  0.007193656    155.30005    2431.4893 
   27500    982.44774    81.653666      2204118          147  0.007193656    168.88676    2494.1079 
   27600    1053.6078    79.359547      2204118          147  0.007193656    126.30749    2619.9477 
   27700    1011.3995    80.781027      2204118          147  0.007193656    152.16231    2545.9054 
   27800    976.32757    75.071212      2204118          147  0.007193656    121.57329    2432.3094 
   27900    971.38847    78.269777      2204118          147  0.007193656    147.47661    2446.5231 
   28000    1012.8514    84.773807      2204118          147  0.007193656    180.98107    2578.1604 
   28100     1039.308     87.19039      2204118          147  0.007193656    188.84913     2648.645 
   28200    993.42863    88.476169      2204118          147  0.007193656    216.88553    2568.0958 
   28300    981.12286    80.531996      2204118          147  0.007193656     160.7136     2482.799 
   28400    960.89161    86.521283      2204118          147  0.007193656    212.72606     2486.929 
   28500     1036.292     83.17585      2204118          147  0.007193656    160.45933     2613.117 
   28600    1031.1861    83.563336      2204118          147  0.007193656    165.91147    2606.4848 
   28700    978.65047    80.580685      2204118          147  0.007193656    164.53711     2480.771 
   28800    960.06467    79.268349      2204118          147  0.007193656    163.23757    2435.4833 
   28900    1008.2807    78.655519      2204118          147  0.007193656    139.26734    2525.6289 
   29000    1013.9885    88.080373      2204118          147  0.007193656    206.04823    2605.9189 
   29100    1016.1078    88.581258      2204118          147  0.007193656    207.89031    2612.7769 
   29200    995.87926    84.853007      2204118          147  0.007193656    187.22002    2544.2304 
   29300    974.88422    83.888523      2204118          147  0.007193656    187.45253    2494.7726 
   29400    990.15872    88.490517      2204118          147  0.007193656    217.75266    2561.2239 
   29500    1054.4131    84.033418      2204118          147  0.007193656    162.96857    2658.5147 
   29600    1005.9105    80.837193      2204118          147  0.007193656    158.04569    2538.7977 
   29700    935.86981    80.847219      2204118          147  0.007193656    183.11775       2398.1 
   29800     984.3636    82.137298      2204118          147  0.007193656    175.11366    2504.8692 
   29900    1060.0227    85.487706      2204118          147  0.007193656    173.62107    2682.4437 
   30000    1034.0236    79.583692      2204118          147  0.007193656    137.96183    2585.2508 
   30100    941.02248    75.398669      2204118          147  0.007193656    139.36817    2366.5455 
   30200    949.63425    77.713058      2204118          147  0.007193656    152.55053    2400.1099 
   30300    1045.0266    85.810855      2204118          147  0.007193656    178.47122    2651.8018 
   30400    1086.3084     82.68254      2204118          147  0.007193656    140.04277    2711.0776 
   30500     968.4466    79.138256      2204118          147  0.007193656    157.46215    2449.5459 
   30600    921.92337     74.95913      2204118          147  0.007193656    143.28576    2325.2601 
   30700    996.07243    77.992759      2204118          147  0.007193656    138.90282    2496.3704 
   30800    1068.5005    87.487763      2204118          147  0.007193656    183.08686    2711.9744 
   30900    1049.3015    84.264857      2204118          147  0.007193656     164.7614    2648.2096 
   31000    929.05853    85.930594      2204118          147  0.007193656    218.95216    2417.8137 
   31100    951.50139    85.116642      2204118          147  0.007193656    202.36028    2454.3387 
   31200    1051.1894    89.869848      2204118          147  0.007193656    200.45671     2688.373 
   31300    1050.4632    95.188129      2204118          147  0.007193656    240.17899    2726.3767 
   31400    995.33042    84.686657      2204118          147  0.007193656    182.14005    2537.8514 
   31500    939.02001    81.133478      2204118          147  0.007193656    178.23406     2400.672 
   31600    991.40023     79.48359      2204118          147  0.007193656    148.05295    2494.4625 
   31700    1046.3745    83.204714      2204118          147  0.007193656     155.6827    2632.2034 
   31800    1013.8748    84.699297      2204118          147  0.007193656    176.44073    2576.0424 
   31900    959.84063    82.914267      2204118          147  0.007193656    180.83395    2452.5494 
   32000    970.05652    85.695221      2204118          147  0.007193656    198.16842    2494.0625 
   32100    1051.5533    84.697617      2204118          147  0.007193656    161.47399    2650.2517 
   32200    1032.2267    85.070506      2204118          147  0.007193656    173.06948    2616.1056 
   32300    966.99007    79.702816      2204118          147  0.007193656    157.59942    2446.2359 
   32400    954.66972    79.359884      2204118          147  0.007193656     160.4297    2419.9068 
   32500    1018.5911    83.653572      2204118          147  0.007193656    170.32781    2581.0916 
   32600    1049.1431    86.765591      2204118          147  0.007193656    181.05126    2664.1246 
   32700    995.06669    86.433367      2204118          147  0.007193656    198.17205    2553.2592 
   32800    980.84221    75.126347      2204118          147  0.007193656    119.76043    2441.1817 
   32900    958.56339    78.926874      2204118          147  0.007193656    156.97939    2425.6719 
   33000    1011.9114    84.452997      2204118          147  0.007193656    178.84425    2573.7989 
   33100     1058.344    84.974605      2204118          147  0.007193656    165.83698    2670.6866 
   33200    1000.4661    80.457228      2204118          147  0.007193656    152.88872    2520.7549 
   33300    945.43959    77.356592      2204118          147  0.007193656    149.84593    2387.4775 
   33400    988.69466    76.587262      2204118          147  0.007193656    128.80395    2468.8101 
   33500     1045.079    78.907985      2204118          147  0.007193656    125.53532    2598.9898 
   33600    1012.9363    81.546364      2204118          147  0.007193656     156.3709    2553.7513 
   33700    970.25283    79.549741      2204118          147  0.007193656    156.46177    2452.8205 
   33800    969.76275    82.251891      2204118          147  0.007193656    177.62061    2472.8194 
   33900     1044.388    78.749141      2204118          147  0.007193656    124.93828    2596.7573 
   34000    1021.6538    79.862219      2204118          147  0.007193656    141.39966    2559.4122 
   34100    964.53219     79.18806      2204118          147  0.007193656    156.22286    2439.0421 
   34200    982.27083    76.564692      2204118          147  0.007193656    127.89916    2452.7016 
   34300    991.76829     88.52918      2204118          147  0.007193656    211.57236     2558.853 
   34400    1059.3539    86.424881      2204118          147  0.007193656    169.61152    2676.8513 
   34500    1004.4304    88.912456      2204118          147  0.007193656    210.26819     2587.517 
   34600    966.12755    81.928451      2204118          147  0.007193656    173.34256    2459.9377 
   34700    979.56542    79.178326      2204118          147  0.007193656    149.11244    2467.5118 
   34800    1014.2218    83.956341      2204118          147  0.007193656    172.97026     2573.393 
   34900    1027.9843     86.67898      2204118          147  0.007193656    188.61795    2621.6133 
   35000     1009.048    81.040062      2204118          147  0.007193656    154.20128    2542.3789 
   35100    962.24593    79.016948      2204118          147  0.007193656     157.6195    2435.0277 
   35200    991.16159    73.555963      2204118          147  0.007193656    106.02277    2451.8675 
   35300    1014.0263    76.580044      2204118          147  0.007193656    119.45001      2519.41 
   35400    1008.2395    81.115775      2204118          147  0.007193656    154.07132    2540.3355 
   35500    1004.8302    79.332255      2204118          147  0.007193656    141.82201    2520.0172 
   35600    993.08067    76.859204      2204118          147  0.007193656    128.64416    2479.0309 
   35700    986.36954    76.359487      2204118          147  0.007193656    127.79864    2462.3018 
   35800    997.96793    78.138394      2204118          147  0.007193656    136.28895    2498.2427 
   35900    1006.5474    82.873176      2204118          147  0.007193656    167.81066    2550.0699 
   36000    1012.6558    83.991809      2204118          147  0.007193656    173.67245    2570.3889 
   36100    1006.7215    81.166765      2204118          147  0.007193656    155.67697    2538.3483 
   36200    984.19763    80.863917      2204118          147  0.007193656    162.72272    2492.0854 
   36300    992.14911    79.717769      2204118          147  0.007193656    150.80779    2498.9898 
   36400    1008.2395     81.35582      2204118          147  0.007193656    156.57364    2542.8377 
   36500    1019.0478     80.14907      2204118          147  0.007193656    143.72649    2555.5713 
   36600    993.09696     79.29323      2204118          147  0.007193656    146.80451    2497.2298 
   36700    977.84969    79.589604      2204118          147  0.007193656    154.03354    2468.3722 
   36800    1006.0849    82.015716      2204118          147  0.007193656    163.90579    2545.0705 
   36900    1046.0928    77.422438      2204118          147  0.007193656    116.87395    2592.7279 
   37000    983.14083    77.783611      2204118          147  0.007193656    143.05616    2469.9177 
   37100    960.07399    74.946318      2204118          147  0.007193656    128.64301    2400.9108 
   37200    993.97114     79.30039      2204118          147  0.007193656    147.53533    2500.0296 
   37300    1049.9744    83.226579      2204118          147  0.007193656    156.05388    2641.0947 
   37400    1030.5525    79.507563      2204118          147  0.007193656    135.68204    2574.7556 
   37500    947.73017    77.920668      2204118          147  0.007193656    154.77127    2397.8241 
   37600    964.87735     75.52604      2204118          147  0.007193656    131.23095    2414.8671 
   37700    1026.4914    80.525152      2204118          147  0.007193656    146.08432    2575.5463 
   37800    1048.1222    81.599366      2204118          147  0.007193656    143.70369    2624.3607 
   37900    968.54833     86.87009      2204118          147  0.007193656    211.55447     2503.879 
   38000    981.56408    79.149459      2204118          147  0.007193656    147.53867    2470.6684 
   38100    1000.0751    81.281566      2204118          147  0.007193656    155.95241    2522.8933 
   38200    1019.2825    83.955801      2204118          147  0.007193656    166.96235    2579.3626 
   38300    999.33523    88.916026      2204118          147  0.007193656    211.26161    2576.4514 
   38400    1000.1783    85.391525      2204118          147  0.007193656    184.80824    2551.9934 
   38500    994.96134    82.965362      2204118          147  0.007193656    169.43798    2524.2758 
   38600     991.9953     83.68717      2204118          147  0.007193656    177.55668    2525.3746 
   38700    1010.6057    81.058541      2204118          147  0.007193656    152.07072     2543.935 
   38800    1003.9902    79.755534      2204118          147  0.007193656    146.44119    2522.6483 
   38900    997.75925    75.872783      2204118          147  0.007193656    120.62728    2482.0871 
   39000      981.008     77.93395      2204118          147  0.007193656    141.69205    2463.5057 
   39100    987.16675    84.149525      2204118          147  0.007193656    183.64539    2520.0353 
   39200    1024.4446    88.928058      2204118          147  0.007193656    204.07452    2628.6924 
   39300    1030.5586    87.290359      2204118          147  0.007193656      188.494    2627.5821 
   39400    974.14099    87.452228      2204118          147  0.007193656    210.77119    2516.3322 
   39500    985.57267    80.958707      2204118          147  0.007193656    159.64968    2492.2668 
   39600    993.85342    83.593353      2204118          147  0.007193656    177.49667    2529.7123 
   39700     1021.657    83.698667      2204118          147  0.007193656    166.73792    2584.7581 
   39800    1008.7118    86.684266      2204118          147  0.007193656    193.04366    2580.4255 
   39900    993.63539    85.839276      2204118          147  0.007193656    193.03457    2544.7342 
   40000    1006.1582    78.749234      2204118          147  0.007193656     136.2651    2517.6033 
   40100    981.45676    80.167339      2204118          147  0.007193656    155.68933     2478.565 
   40200    978.53838    85.269973      2204118          147  0.007193656     194.6552    2510.6238 
   40300    1041.5552    80.570264      2204118          147  0.007193656    136.45039    2601.5649 
   40400    1007.7627    82.580209      2204118          147  0.007193656    164.08048    2549.2161 
   40500    968.14222    81.645993      2204118          147  0.007193656     171.3018    2462.6651 
   40600    975.66293    84.559947      2204118          147  0.007193656    190.49537    2499.6585 
   40700    1038.6634     83.15451      2204118          147  0.007193656    156.98341    2615.2537 
   40800    1020.2224    85.374579      2204118          147  0.007193656    180.50202    2595.1268 
   40900    968.24607    87.017262      2204118          147  0.007193656    212.08265    2503.6918 
   41000    985.34847    83.826045      2204118          147  0.007193656    180.06378    2512.1502 
   41100    1019.2521    85.551488      2204118          147  0.007193656    180.18353    2592.5119 
   41200    1025.9924    85.078659      2204118          147  0.007193656    173.26263    2601.5436 
   41300    985.31661    84.146525      2204118          147  0.007193656    180.01418    2512.0252 
   41400    974.44558    83.584337      2204118          147  0.007193656    179.85133    2486.1332 
   41500    993.00548    88.800749      2204118          147  0.007193656    212.29249    2562.5013 
   41600     1025.333    92.157566      2204118          147  0.007193656    223.84991    2650.5703 
   41700    1000.1063    98.411526      2204118          147  0.007193656    280.19437    2647.2091 
   41800    1012.6525    89.889518      2204118          147  0.007193656    213.79829     2610.507 
   41900     1005.307    80.899441      2204118          147  0.007193656    151.79343     2531.117 
   42000    971.57282    79.499852      2204118          147  0.007193656    155.48757    2454.9703 
   42100    986.92234    79.886845      2204118          147  0.007193656    153.92804    2489.7395 
   42200    1025.3683    80.697824      2204118          147  0.007193656     146.5523    2573.3562 
   42300    1013.4271    82.336749      2204118          147  0.007193656     163.0696    2561.6116 
   42400     989.5723    79.945204      2204118          147  0.007193656    153.46469     2495.548 
   42500    969.93361    83.731845      2204118          147  0.007193656    189.07364    2484.6768 
   42600    1015.2368    84.145827      2204118          147  0.007193656    174.58295    2577.4079 
   42700     1020.511    87.665307      2204118          147  0.007193656    198.46906     2613.777 
   42800    998.56016    85.271672      2204118          147  0.007193656    187.21831    2550.5737 
   42900    979.14091    83.006825      2204118          147  0.007193656    177.69752    2495.0922 
   43000     988.2218    84.463397      2204118          147  0.007193656    184.84694    2523.7339 
   43100    1009.6784    89.798219      2204118          147  0.007193656    215.77559    2605.4453 
   43200    1034.0852    86.857008      2204118          147  0.007193656    182.89738    2630.3321 
   43300    989.69042    85.965694      2204118          147  0.007193656    191.44063    2533.8035 
   43400    961.13639    87.024155      2204118          147  0.007193656      210.706    2485.4882 
   43500    1017.0421    83.466466      2204118          147  0.007193656    165.62763    2572.7254 
   43600    1032.2183     82.50757      2204118          147  0.007193656    155.08276    2598.0991 
   43700    991.67613    77.947386      2204118          147  0.007193656    135.52591    2482.5885 
   43800    951.04216    80.212161      2204118          147  0.007193656    166.11842      2417.01 
   43900    997.29767    84.529018      2204118          147  0.007193656    180.75811    2541.1255 
   44000    1050.5161    88.422334      2204118          147  0.007193656     189.7648    2676.0875 
   44100    1023.8092    86.868774      2204118          147  0.007193656    187.92307     2611.037 
   44200    967.84505    81.271807      2204118          147  0.007193656    166.04125    2456.7013 
   44300    946.27765    85.226493      2204118          147  0.007193656    203.30853    2442.9236 
   44400    1018.0967    90.810274      2204118          147  0.007193656     219.8003    2629.3941 
   44500    1086.2962     85.74362      2204118          147  0.007193656    158.09442    2729.1004 
   44600    990.77165     82.16161      2204118          147  0.007193656    168.51512     2513.437 
   44700    931.84522    75.048052      2204118          147  0.007193656    138.48091    2343.9379 
   44800     962.7881    79.020953      2204118          147  0.007193656    157.20153     2435.893 
   44900    1051.1539    85.594877      2204118          147  0.007193656    173.57417    2661.4065 
   45000    1055.9995    86.613098      2204118          147  0.007193656    179.34581    2678.6465 
   45100    993.39244    74.803916      2204118          147  0.007193656    112.64113    2463.7658 
   45200    900.65907    81.174982      2204118          147  0.007193656    192.32951    2323.9762 
   45300    995.72035      84.9233      2204118          147  0.007193656    183.88702    2540.5213 
   45400    1103.9046    88.943094      2204118          147  0.007193656    174.21832    2786.8991 
   45500    1006.3848     91.34213      2204118          147  0.007193656    226.22983    2608.1043 
   45600    931.30219    84.062797      2204118          147  0.007193656    199.10809    2403.2798 
   45700    972.58107    82.199737      2204118          147  0.007193656     172.2655    2474.1346 
   45800    1039.3315    89.877034      2204118          147  0.007193656    207.90057    2667.7521 
   45900    1046.3818    88.276897      2204118          147  0.007193656    194.30949    2670.8473 
   46000    972.44782    79.872901      2204118          147  0.007193656    158.25751    2459.8112 
   46100     939.9676    76.138562      2204118          147  0.007193656    142.49881    2367.1795 
   46200     982.5178    83.676584      2204118          147  0.007193656    184.86633    2510.2533 
   46300    1071.2298    83.179663      2204118          147  0.007193656    148.54757    2683.8948 
   46400    1021.7566    79.195342      2204118          147  0.007193656    135.69911    2553.9549 
   46500    925.44308    79.565752      2204118          147  0.007193656    172.72147    2363.0261 
   46600    976.87983    77.551209      2204118          147  0.007193656     137.8117    2449.8549 
   46700    1043.2837    86.405297      2204118          147  0.007193656    178.72657     2647.932 
   46800    1042.8758    89.797428      2204118          147  0.007193656    202.74513    2670.9853 
   46900    989.30745    83.018411      2204118          147  0.007193656    171.69438    2513.1508 
   47000    954.86194    79.660707      2204118          147  0.007193656    160.89813    2420.8302 
   47100    987.86185    82.636823      2204118          147  0.007193656    172.68485    2510.7199 
   47200    1040.9791    84.876847      2204118          147  0.007193656    169.53233    2633.2834 
   47300    1013.7531    88.243929      2204118          147  0.007193656    204.57433    2603.8878 
   47400    986.48614    83.237927      2204118          147  0.007193656    177.26613    2512.0452 
   47500    983.14457    79.706224      2204118          147  0.007193656    153.98837    2480.8588 
   47600    1004.3839    79.100111      2204118          147  0.007193656    142.89234    2520.0312 
   47700    1004.4628    83.120333      2204118          147  0.007193656    172.31363    2549.6391 
   47800    1000.9322    85.811973      2204118          147  0.007193656    193.63428    2562.6038 
   47900    1010.6268    81.573964      2204118          147  0.007193656    158.07219    2549.9864 
   48000    989.62505    82.074604      2204118          147  0.007193656    169.77381    2511.9819 
   48100     1001.185    80.162984      2204118          147  0.007193656    151.35416    2520.9219 
   48200    1007.1982    81.582857      2204118          147  0.007193656    160.36808    2544.1676 
   48300    1014.7465     78.32581      2204118          147  0.007193656    132.82945    2534.4942 
   48400    966.99766    84.924321      2204118          147  0.007193656    199.92474    2488.5792 
   48500    1010.0776    80.875267      2204118          147  0.007193656    153.50262     2544.117 
   48600    1023.7283    81.164577      2204118          147  0.007193656    150.07647    2572.9989 
   48700    982.35889    85.081534      2204118          147  0.007193656    193.61111     2518.622 
   48800    997.04578    81.314716      2204118          147  0.007193656    159.31403    2519.0853 
   48900    1006.9931    82.464749      2204118          147  0.007193656    166.04251    2549.3567 
   49000    1010.9682    80.772226      2204118          147  0.007193656    153.35185    2546.0741 
   49100    986.51352    81.855878      2204118          147  0.007193656    171.91243    2506.7563 
   49200    1008.9371    77.499947      2204118          147  0.007193656    131.70768    2519.6228 
   49300    1000.3923    79.901945      2204118          147  0.007193656    152.76172    2520.4534 
   49400    984.74427    83.210476      2204118          147  0.007193656    181.64616    2512.3027 
   49500    1018.3334    80.821064      2204118          147  0.007193656    151.49319    2561.6473 
   49600    1015.8968    79.999506      2204118          147  0.007193656    146.81548    2551.2026 
   49700    978.22968    79.654194      2204118          147  0.007193656    157.40277    2472.6407 
   49800    986.90779    76.898816      2204118          147  0.007193656    133.16091    2468.9379 
   49900    1012.1057    77.801178      2204118          147  0.007193656    131.61368    2527.0281 
   50000    1018.3266    77.094401      2204118          147  0.007193656    124.23799     2534.376 
   50100    987.70754     77.25854      2204118          147  0.007193656    135.82099    2473.4908 
   50200    987.02264    77.053049      2204118          147  0.007193656    133.87637    2469.9252 
   50300    999.44318    81.590086      2204118          147  0.007193656    162.98029    2528.4256 
   50400     1022.252    82.568253      2204118          147  0.007193656    161.96538    2581.3938 
   50500    1004.0014    83.899313      2204118          147  0.007193656    179.76411    2555.9977 
   50600    999.03671    76.960518      2204118          147  0.007193656    130.29538    2494.7787 
   50700    973.00879     77.78589      2204118          147  0.007193656    147.46056    2450.3419 
   50800    1001.8969    76.468911      2204118          147  0.007193656    127.28798    2498.5406 
   50900    1020.4086     77.17558      2204118          147  0.007193656    125.69265    2540.7582 
   51000    999.61517    78.335539      2204118          147  0.007193656    140.84954    2506.7019 
   51100    985.45043    77.871871      2204118          147  0.007193656    139.86471    2472.1925 
   51200    978.25596     85.21551      2204118          147  0.007193656    194.61021    2509.9104 
   51300    1024.8654    88.271489      2204118          147  0.007193656    198.85914    2624.4728 
   51400    1033.1997    87.432342      2204118          147  0.007193656    189.77184    2635.1107 
   51500    979.84321    86.511894      2204118          147  0.007193656    204.35565    2523.4125 
   51600    983.40448    78.422005      2204118          147  0.007193656    142.67498    2470.1605 
   51700    973.35563    85.276905      2204118          147  0.007193656    199.19126    2502.8935 
   51800    1041.7695    80.547924      2204118          147  0.007193656    139.98367    2605.6054 
   51900    1021.3107    78.171299      2204118          147  0.007193656    130.22958    2547.4303 
   52000    946.15822    80.216335      2204118          147  0.007193656    171.27894    2410.6114 
   52100    976.04339    80.644341      2204118          147  0.007193656    162.41424    2472.4778 
   52200    1042.1371    85.674721      2204118          147  0.007193656    176.83062    2643.3222 
   52300    1046.5198    81.655018      2204118          147  0.007193656    144.08351    2620.9481 
   52400    946.43006    83.083546      2204118          147  0.007193656    189.57989    2429.5557 
   52500    952.73759    83.755265      2204118          147  0.007193656    189.95506    2444.8593 
   52600    1028.3482    92.289506      2204118          147  0.007193656     226.1616    2660.0183 
   52700    1083.9752    87.891395      2204118          147  0.007193656    173.86931     2739.382 
   52800    987.00736    80.980006      2204118          147  0.007193656    160.07329     2496.086 
   52900    914.08632    78.380949      2204118          147  0.007193656    168.44968    2331.8755 
   53000    984.70395    80.745268      2204118          147  0.007193656     160.0106    2490.5717 
   53100    1064.0458    89.971426      2204118          147  0.007193656    200.95199    2719.2963 
   53200    1040.4437    85.956626      2204118          147  0.007193656      178.193    2640.6767 
   53300    945.91192    81.326136      2204118          147  0.007193656    179.16995    2417.9194 
   53400    955.65983    77.418025      2204118          147  0.007193656    148.46841    2410.2889 
   53500    1027.7427    79.906801      2204118          147  0.007193656    141.30581    2573.7294 
   53600    1047.0267    81.838193      2204118          147  0.007193656    148.30935    2626.3735 
   53700       986.99    78.405437      2204118          147  0.007193656    143.77077    2479.7424 
   53800    952.00704     75.65305      2204118          147  0.007193656    134.67315    2387.8484 
   53900    980.81826    82.955227      2204118          147  0.007193656     177.2721    2498.6366 
   54000     1058.842    86.284371      2204118          147  0.007193656     172.3113    2678.3395 
   54100     1031.075    86.452781      2204118          147  0.007193656    184.24437    2624.5548 
   54200    968.53482    79.190917      2204118          147  0.007193656    153.66841     2445.961 
   54300    956.02369    75.547303      2204118          147  0.007193656    131.22166    2393.9033 
   54400    996.31425    82.205772      2204118          147  0.007193656    165.59338    2523.6333 
   54500    1044.2729    89.784037      2204118          147  0.007193656    203.84055    2675.3871 
   54600    1038.6171    87.567651      2204118          147  0.007193656    189.54248    2647.7032 
   54700    960.87157     85.92347      2204118          147  0.007193656    206.76227    2480.9177 
   54800    963.51447    81.945703      2204118          147  0.007193656    177.59773    2458.0083 
   54900    1030.3131    80.921213      2204118          147  0.007193656    147.61893     2586.126 
   55000    1041.9904    79.596861      2204118          147  0.007193656    133.35345    2599.4979 
   55100    966.23642    82.141239      2204118          147  0.007193656    179.25147    2466.1043 
   55200    976.31485    79.568235      2204118          147  0.007193656     156.8778    2467.5838 
   55300    1025.6396    81.025843      2204118          147  0.007193656    151.55898    2579.0051 
   55400    1027.6462    82.238619      2204118          147  0.007193656    160.32247    2592.5177 
   55500    994.73199    78.102032      2204118          147  0.007193656     141.1539    2495.4489 
   55600    952.78223    80.571169      2204118          147  0.007193656    173.85558    2428.8655 
   55700    989.97416    83.584331      2204118          147  0.007193656    178.82582    2521.8602 
   55800    1042.4127    87.723981      2204118          147  0.007193656    187.70742    2654.8515 
   55900      1007.63     93.48459      2204118          147  0.007193656    242.97167    2627.7932 
   56000    1001.2726    84.155572      2204118          147  0.007193656    175.37165    2545.1469 
   56100    966.59971    87.519436      2204118          147  0.007193656    216.03833    2503.7509 
   56200    1009.1427    84.774622      2204118          147  0.007193656    182.27806    2570.6798 
   56300    1041.8984    78.797936      2204118          147  0.007193656    127.27211    2593.1988 
   56400    992.18732    76.325932      2204118          147  0.007193656    127.51322    2475.7856 
   56500    948.13161    78.181263      2204118          147  0.007193656    156.83831    2400.8413 
   56600    1001.1382    78.902276      2204118          147  0.007193656    141.25715    2510.7141 
   56700    1045.8961     84.18881      2204118          147  0.007193656    164.48883    2639.8771 
   56800    1017.5878    82.755115      2204118          147  0.007193656    162.97473     2571.364 
   56900    955.48215    82.184526      2204118          147  0.007193656    182.34585    2443.7458 
   57000    989.48039    77.183407      2204118          147  0.007193656    133.85497    2475.7207 
   57100     1013.091    81.187679      2204118          147  0.007193656     155.6963    2553.4428 
   57200    1017.6944    81.731825      2204118          147  0.007193656      157.394    2566.0356 
   57300    997.23804    77.600265      2204118          147  0.007193656    132.94371      2493.17 
   57400    971.18794    76.929559      2204118          147  0.007193656    136.48765    2435.0595 
   57500    993.61072     78.85282      2204118          147  0.007193656    141.22854    2492.8698 
   57600    1019.4886    85.234839      2204118          147  0.007193656    179.18143    2592.0695 
   57700    1036.0301    82.743386      2204118          147  0.007193656    154.22506    2606.2631 
   57800    983.75897     80.71937      2204118          147  0.007193656    157.94048     2486.265 
   57900    966.39277    78.368258      2204118          147  0.007193656    146.39663    2433.6195 
   58000    1000.5169     81.03584      2204118          147  0.007193656    154.64048     2522.627 
   58100    1034.0829    83.149969      2204118          147  0.007193656    157.32779    2604.7571 
   58200    997.04422    86.655056      2204118          147  0.007193656     196.5701    2556.3376 
   58300    977.41939    84.839946      2204118          147  0.007193656    189.71586    2503.0361 
   58400    1007.7898    80.700094      2204118          147  0.007193656    148.55395    2533.7538 
   58500    1012.7124    82.488751      2204118          147  0.007193656    161.72999    2558.5805 
   58600     988.8541    86.031435      2204118          147  0.007193656    197.66928    2538.0528 
   58700    1007.2884    80.208411      2204118          147  0.007193656    146.98829    2531.0014 
   58800    990.93553    82.248521      2204118          147  0.007193656    168.03059    2513.3403 
   58900    993.03375    84.224109      2204118          147  0.007193656    181.07158    2531.3473 
   59000    1018.3846    82.552878      2204118          147  0.007193656    158.63692    2568.9121 
   59100    986.38481     87.81052      2204118          147  0.007193656    209.36592    2543.9052 
   59200    990.94748    87.138567      2204118          147  0.007193656    201.58955    2546.9276 
   59300    1006.6293    87.634659      2204118          147  0.007193656    200.71707    2583.1703 
   59400    1019.6323    82.609498      2204118          147  0.007193656    159.80812    2573.0362 
   59500    990.88881    79.406851      2204118          147  0.007193656    147.06727    2492.2664 
   59600     969.2104    80.519486      2204118          147  0.007193656    163.55579    2457.4473 
   59700    1000.4485    83.468729      2204118          147  0.007193656    173.94827     2541.773 
   59800    1038.7785    83.779471      2204118          147  0.007193656    161.96055    2620.5032 
   59900    998.99826    86.360821      2204118          147  0.007193656    196.08809    2560.4804 
   60000     988.1325    80.660467      2204118          147  0.007193656      157.605    2496.2806 
   60100    992.29211    78.332893      2204118          147  0.007193656    140.16936    2488.6898 
   60200    1004.4725    79.118305      2204118          147  0.007193656    141.98654    2519.3351 
   60300    998.89074    82.673688      2204118          147  0.007193656    169.81324    2533.9511 
   60400    1005.5489    80.194179      2204118          147  0.007193656     146.2659     2526.162 
   60500    987.22142    83.684612      2204118          147  0.007193656    176.78433    2513.3036 
   60600    989.53381    90.914521      2204118          147  0.007193656    229.72921    2571.7214 
   60700    1049.9359    86.037595      2204118          147  0.007193656    171.63072    2656.5803 
   60800    1011.2464    83.065632      2204118          147  0.007193656     166.1494    2559.5302 
   60900    958.74025      78.5329      2204118          147  0.007193656    153.63561    2422.7467 
   61000    964.11915    80.634069      2204118          147  0.007193656    169.51497    2451.3567 
   61100    1034.1724    81.568922      2204118          147  0.007193656    151.35209    2598.9932 
   61200    1032.6635     83.09974      2204118          147  0.007193656    162.85054    2606.9206 
   61300    975.62818    81.693344      2204118          147  0.007193656    172.17757    2481.2584 
   61400    973.60872    78.312371      2204118          147  0.007193656    147.46689    2451.7682 
   61500    997.18054    83.254388      2204118          147  0.007193656    176.56728    2536.6575 
   61600    1036.7018    82.394289      2204118          147  0.007193656     154.4583     2608.086 
   61700    1007.9686    81.847388      2204118          147  0.007193656    161.04702    2546.6701 
   61800    967.36256    80.033523      2204118          147  0.007193656    161.81511    2451.3332 
   61900    975.74244    81.578819      2204118          147  0.007193656    169.37009    2478.7214 
   62000    1028.1086    83.508892      2204118          147  0.007193656     163.5501    2596.8397 
   62100    1025.2158    87.163893      2204118          147  0.007193656    191.99599     2618.439 
   62200    998.09884    80.357387      2204118          147  0.007193656    150.11617    2512.3798 
   62300    952.33588    80.748504      2204118          147  0.007193656    168.20816    2422.1617 
   62400    980.75921     85.87257      2204118          147  0.007193656    194.24149    2515.4663 
   62500    1047.7515    88.201096      2204118          147  0.007193656    185.17127     2664.951 
   62600    1026.6597    89.088787      2204118          147  0.007193656    199.89044    2629.7508 
   62700    972.97884    83.999607      2204118          147  0.007193656    183.86788    2486.6784 
   62800    960.50012    81.043305      2204118          147  0.007193656    168.26832    2441.5446 
   62900     1012.818    79.856905      2204118          147  0.007193656    141.75121    2538.8515 
   63000    1018.0245    85.241557      2204118          147  0.007193656    180.30075    2589.7237 
   63100    1013.1316    80.178495      2204118          147  0.007193656    143.18487    2541.0274 
   63200    965.94708    81.641436      2204118          147  0.007193656    171.77451    2457.9425 
   63300    981.74719    82.289585      2204118          147  0.007193656    170.39484     2493.958 
   63400    1020.9727     87.35658      2204118          147  0.007193656    195.12149     2611.522 
   63500    1031.9127    86.081603      2204118          147  0.007193656     182.5398    2624.8327 
   63600    983.74531    81.367985      2204118          147  0.007193656    164.90289    2493.1951 
   63700    951.34669    82.473248      2204118          147  0.007193656    186.56818    2438.1805 
   63800    1017.0886    79.174053      2204118          147  0.007193656    136.65699    2543.8648 
   63900    1016.4927    88.260368      2204118          147  0.007193656    203.13546    2608.9331 
   64000    1010.6177    89.342457      2204118          147  0.007193656    213.96145    2605.8543 
   64100    1010.7109    80.129624      2204118          147  0.007193656    146.51032    2538.6237 
   64200    944.35763    85.739083      2204118          147  0.007193656     215.0084    2450.0793 
   64300     1007.527    79.939934      2204118          147  0.007193656    149.39822    2533.9761 
   64400    1045.0461    78.240918      2204118          147  0.007193656    124.40249    2597.7792 
   64500     993.1207    77.191258      2204118          147  0.007193656    135.80304    2486.2846 
   64600    961.46839     74.82604      2204118          147  0.007193656     127.7545    2403.3225 
   64700      978.346    80.980254      2204118          147  0.007193656    167.06909    2482.5824 
   64800    1038.5249    81.038214      2204118          147  0.007193656    145.11394    2603.0565 
   64900    998.56991     84.83604      2204118          147  0.007193656    188.01428    2551.3928 
   65000    977.13232    79.005247      2204118          147  0.007193656    150.70532    2463.3461 
   65100      983.328    79.523481      2204118          147  0.007193656     152.2519    2479.5564 
   65200    1044.6509    87.127276      2204118          147  0.007193656    186.48492    2658.9262 
   65300    1033.5769    87.553627      2204118          147  0.007193656    191.77481    2638.0065 
   65400    988.93946    88.549385      2204118          147  0.007193656    215.28595    2555.8715 
   65500    1011.5443    81.164582      2204118          147  0.007193656    152.06482    2546.1507 
   65600    999.34706    79.902993      2204118          147  0.007193656    148.64189    2513.8597 
   65700    967.02554    80.387538      2204118          147  0.007193656    165.17499    2453.8954 
   65800    963.51662    76.562602      2204118          147  0.007193656    137.27578    2417.6914 
   65900    991.18494    85.671643      2204118          147  0.007193656    194.71673    2540.6167 
   66000    1032.3447    89.232559      2204118          147  0.007193656    205.67908    2648.9946 
   66100    1016.4473    86.508095      2204118          147  0.007193656     192.1894    2597.8793 
   66200    980.09251    79.412706      2204118          147  0.007193656    152.99424    2472.6411 
   66300    974.40368    79.936778      2204118          147  0.007193656    159.28283    2465.4656 
   66400    992.57402    82.522736      2204118          147  0.007193656    172.13009    2521.3177 
   66500    1002.9137    83.458236      2204118          147  0.007193656    175.46022    2549.1195 
   66600    1001.5461    83.258168      2204118          147  0.007193656    174.62886    2545.0514 
   66700    989.78999    78.496205      2204118          147  0.007193656     143.2516    2485.8501 
   66800    938.13139    75.348655      2204118          147  0.007193656    138.56788    2358.9027 
   66900    973.95514    81.063707      2204118          147  0.007193656    168.32559    2473.4467 
   67000    1019.2428    83.450847      2204118          147  0.007193656    169.94015    2582.2465 
   67100    1004.5083    84.172301      2204118          147  0.007193656    181.52872    2558.9621 
   67200    985.10037    79.862629      2204118          147  0.007193656    156.03652    2487.5358 
   67300    962.58116    79.460789      2204118          147  0.007193656    161.12065    2439.3223 
   67400    1019.1786    80.343275      2204118          147  0.007193656    146.90214    2559.0565 
   67500    1034.7924    86.213676      2204118          147  0.007193656    184.54764    2633.6562 
   67600    993.94882    84.047578      2204118          147  0.007193656    181.18475    2533.6262 
   67700    974.36114    81.714203      2204118          147  0.007193656    170.88282    2476.9649 
   67800    1009.0799    80.013447      2204118          147  0.007193656    145.21086    2533.4639 
   67900     1071.236    89.625371      2204118          147  0.007193656    192.87683    2728.2387 
   68000    1066.5755    90.141702      2204118          147  0.007193656    197.07512    2721.4067 
   68100    1006.0324    85.596124      2204118          147  0.007193656    186.07415    2567.1147 
   68200    978.76092    83.080329      2204118          147  0.007193656    177.43664     2493.932 
   68300    979.71912    84.281162      2204118          147  0.007193656    185.77166    2504.5348 
   68400     1032.885    86.051799      2204118          147  0.007193656    180.90033    2625.4945 
   68500    1041.9559    81.849688      2204118          147  0.007193656    147.27144    2613.3342 
   68600    959.73332    78.814309      2204118          147  0.007193656    153.83298    2425.2945 
   68700    980.34236    80.828867      2204118          147  0.007193656     160.0138     2480.252 
   68800    1024.8585     83.85176      2204118          147  0.007193656    166.62073     2592.218 
   68900    1001.6815    89.623981      2204118          147  0.007193656    217.89004    2588.6329 
   69000     984.5183    84.637111      2204118          147  0.007193656    185.05877    2515.1804 
   69100    938.47448    82.635462      2204118          147  0.007193656    186.78093    2407.9278 
   69200    974.39665    83.352902      2204118          147  0.007193656     179.1648    2485.3309 
   69300     1030.026    86.456813      2204118          147  0.007193656    183.61282    2621.4405 
   69400    1015.3818    84.506265      2204118          147  0.007193656    176.04225    2579.2105 
   69500    987.50706    76.455765      2204118          147  0.007193656    127.13611    2464.3315 
   69600    969.55864    77.217645      2204118          147  0.007193656    140.66787    2435.3836 
   69700    1011.9575    77.040325      2204118          147  0.007193656    123.74107    2518.8049 
   69800    1001.4156    87.135215      2204118          147  0.007193656    202.42158    2572.5351 
   69900    1016.3039    86.376067      2204118          147  0.007193656    190.79318    2596.1438 
   70000    1011.8701    83.208325      2204118          147  0.007193656    168.86151    2563.7185 
   70100    984.37985    81.602974      2204118          147  0.007193656    166.11527    2495.9093 
   70200     970.3036    86.412954      2204118          147  0.007193656    207.54327    2504.0221 
   70300     1037.662    83.709479      2204118          147  0.007193656    163.41635    2619.3167 
   70400     1016.937    82.866977      2204118          147  0.007193656    165.11697     2571.966 
   70500    961.57074    80.073851      2204118          147  0.007193656    163.64993    2439.4602 
   70600    972.13189    82.332861      2204118          147  0.007193656    176.05456    2476.8605 
   70700     1004.354     82.77073      2204118          147  0.007193656    167.38197    2544.4501 
   70800    1019.9365    82.024328      2204118          147  0.007193656    156.14605    2570.0942 
   70900    979.11886    83.942994      2204118          147  0.007193656    186.09411    2503.4366 
   71000    947.43678    76.011519      2204118          147  0.007193656    137.73513    2380.0936 
   71100    968.38935    77.929475      2204118          147  0.007193656    144.83894    2436.7872 
   71200    1021.2399     85.00632      2204118          147  0.007193656    178.65461    2595.6875 
   71300    1025.0898    81.800422      2204118          147  0.007193656    153.25789    2579.4027 
   71400    979.43217    80.421638      2204118          147  0.007193656    159.42199     2477.506 
   71500    953.63707    86.306011      2204118          147  0.007193656    212.26789     2469.301 
   71600    1037.8031      89.4191      2204118          147  0.007193656    204.65191    2660.8862 
   71700    1040.4339    84.165318      2204118          147  0.007193656    166.36715    2628.8278 
   71800    992.55043    78.033503      2204118          147  0.007193656    138.99278    2488.1246 
   71900    972.13113    78.971167      2204118          147  0.007193656    153.70444    2454.5086 
   72000    1010.1111    81.619402      2204118          147  0.007193656    160.21285    2550.9066 
   72100    1034.4702    84.336132      2204118          147  0.007193656    172.88343    2621.2295 
   72200    993.88387     75.90764      2204118          147  0.007193656     125.2517    2477.5395 
   72300    945.61863    73.866228      2204118          147  0.007193656    126.80027    2364.8556 
   72400      986.282    80.275975      2204118          147  0.007193656    158.31522    2492.6111 
   72500    1028.0577    81.595621      2204118          147  0.007193656    152.77041    2585.9395 
   72600    1009.6686    79.042279      2204118          147  0.007193656    139.75533    2529.4018 
   72700    965.42415    78.622715      2204118          147  0.007193656    152.83734    2437.7677 
   72800    999.10746    78.022503      2204118          147  0.007193656    135.58502    2500.2358 
   72900    1070.5755    83.743885      2204118          147  0.007193656    151.03278    2684.8315 
   73000    1025.7677    85.951813      2204118          147  0.007193656    183.17701    2610.9262 
   73100    995.53134    84.788377      2204118          147  0.007193656    185.24536    2541.4323 
   73200    999.33005    82.141915      2204118          147  0.007193656    164.71222    2529.8898 
   73300    1011.4459     81.96192      2204118          147  0.007193656    162.04984    2555.9027 
   73400    1030.4508    77.320753      2204118          147  0.007193656    121.99897    2560.8319 
   73500    959.19331    78.793835      2204118          147  0.007193656    159.61366    2429.7971 
   73600    973.01315    76.968567      2204118          147  0.007193656    140.29967    2443.1914 
   73700    1030.3152    80.660042      2204118          147  0.007193656    147.13638    2585.6485 
   73800    1028.1111    79.403611      2204118          147  0.007193656    137.32496    2570.6204 
   73900     985.5465    82.759454      2204118          147  0.007193656    175.83524    2508.3904 
   74000    990.24794    83.239658      2204118          147  0.007193656     174.4667    2518.1491 
   74100    1002.8154    88.208011      2204118          147  0.007193656    206.01266    2579.4392 
   74200    1061.0205    88.149055      2204118          147  0.007193656    183.60462    2694.7888 
   74300    1044.7939    88.063301      2204118          147  0.007193656    189.53177    2662.3114 
   74400    968.24211    83.197493      2204118          147  0.007193656    181.27823     2472.878 
   74500    972.39911    85.537034      2204118          147  0.007193656     197.6961    2499.1345 
   74600    1026.0819    86.762175      2204118          147  0.007193656    187.93386    2616.4267 
   74700    1017.6212    87.535934      2204118          147  0.007193656    196.16336    2604.6318 
   74800     969.2558    84.143072      2204118          147  0.007193656    187.65809     2481.657 
   74900    951.19313    83.793358      2204118          147  0.007193656    193.79982    2445.0487 
   75000    1063.8413    82.418207      2204118          147  0.007193656    144.17457    2662.0349 
   75100    1024.5847    82.119985      2204118          147  0.007193656    156.15424    2581.1035 
   75200     971.7403    82.246674      2204118          147  0.007193656    176.34908    2476.2282 
   75300     997.2368    80.469272      2204118          147  0.007193656    154.07595    2514.2993 
   75400    1028.6122    83.565949      2204118          147  0.007193656     166.3399    2600.8215 
   75500    1027.4418    82.812569      2204118          147  0.007193656    160.09109    2591.8026 
   75600    950.46042    81.036015      2204118          147  0.007193656    173.74084    2423.2556 
   75700    983.80198    78.473027      2204118          147  0.007193656    142.14897    2470.5753 
   75800    1027.9913    80.975013      2204118          147  0.007193656     144.6239    2577.6359 
   75900    1002.9753     87.10617      2204118          147  0.007193656    200.33384    2574.1389 
[...]
  381700    992.99811    83.008603      2204118          147  0.007193656    176.10981    2526.3012 
  381800    986.26705    80.351413      2204118          147  0.007193656     159.4141    2493.6746 
  381900    1006.0091    78.552576      2204118          147  0.007193656    139.39674    2520.3821 
  382000    1008.8678    81.642908      2204118          147  0.007193656     161.5751    2549.3262 
  382100     1043.745     82.03308      2204118          147  0.007193656    151.67332    2621.9706 
  382200    1003.8193    82.074444      2204118          147  0.007193656    165.99695    2541.7996 
  382300    965.58851    79.175434      2204118          147  0.007193656    155.88951    2441.2088 
  382400    986.26341    81.932902      2204118          147  0.007193656    167.73358    2501.9855 
  382500    1015.5312    90.289338      2204118          147  0.007193656    218.82216     2622.344 
  382600    1035.0365    85.688915      2204118          147  0.007193656    177.85452    2627.5408 
  382700    1011.8175    81.455166      2204118          147  0.007193656    156.04768      2550.78 
  382800    984.44595    82.855568      2204118          147  0.007193656    177.17397    2507.1244 
  382900    1000.9961     81.92987      2204118          147  0.007193656    166.84743    2535.9681 
  383000    1050.5751    74.258109      2204118          147  0.007193656    93.112741    2579.5751 
  383100    953.44411    79.250446      2204118          147  0.007193656    166.81344    2423.3899 
  383200    966.26772    75.871226      2204118          147  0.007193656    135.63683    2422.5637 
  383300    1007.8256    81.243728      2204118          147  0.007193656    160.40338    2545.6878 
  383400    1030.5592    79.533543      2204118          147  0.007193656    139.91041         2579 
  383500    1004.2653    77.941948      2204118          147  0.007193656    137.53387     2514.392 
  383600    969.02678    84.154316      2204118          147  0.007193656    195.86408     2489.321 
  383700    997.38063    84.609781      2204118          147  0.007193656    187.50523     2548.069 
  383800    1013.7206    82.858994      2204118          147  0.007193656    167.23206    2566.4687 
  383900    997.62413    83.741282      2204118          147  0.007193656    179.05349    2540.1935 
  384000     998.2856    83.698987      2204118          147  0.007193656     178.5139    2541.2195 
  384100    1016.0234    78.447001      2204118          147  0.007193656    133.24797    2537.9348 
  384200    975.47564    79.125277      2204118          147  0.007193656    153.79121     2462.511 
  384300    920.54396    74.490312      2204118          147  0.007193656    138.18945     2316.899 
  384400    936.06212    75.158836      2204118          147  0.007193656    137.43834    2352.8757 
  384500    1003.3178    79.377031      2204118          147  0.007193656    145.49022    2520.1059 
  384600    1035.5821     75.08118      2204118          147  0.007193656    102.04029     2553.018 
  384700    981.83059    76.258686      2204118          147  0.007193656    129.71563    2453.4761 
  384800    956.37108    78.923132      2204118          147  0.007193656    155.27056    2418.7744 
  384900    1004.4413    88.088577      2204118          147  0.007193656    203.84013    2581.1148 
  385000     1031.381    87.305566      2204118          147  0.007193656    188.33797    2629.3726 
  385100    1008.2408    81.185761      2204118          147  0.007193656    151.28576     2537.553 
  385200    964.46375    83.253604      2204118          147  0.007193656    182.58192    2465.2392 
  385300     1003.998    82.880131      2204118          147  0.007193656    165.58219    2541.8076 
  385400    1029.8641    87.004085      2204118          147  0.007193656    188.93254     2626.377 
  385500    981.70326     83.39578      2204118          147  0.007193656    180.98354    2504.4427 
  385600     950.8273    74.414737      2204118          147  0.007193656    126.23285    2376.6159 
  385700     980.8544     81.21293      2204118          147  0.007193656    165.97875    2487.4288 
  385800    1025.2019    84.541296      2204118          147  0.007193656    173.41061    2599.8208 
  385900    1011.8654    85.791121      2204118          147  0.007193656    187.97069    2582.8165 
  386000    977.30181    82.556907      2204118          147  0.007193656    177.22111     2490.263 
  386100    955.16756    77.177026      2204118          147  0.007193656    145.84302    2406.4984 
  386200    963.21693    79.867723      2204118          147  0.007193656    163.29462     2443.001 
  386300    1032.6621    83.639998      2204118          147  0.007193656    166.42612    2610.4927 
  386400    1021.0731    83.026338      2204118          147  0.007193656    166.96277     2583.601 
  386500    972.45578    81.119448      2204118          147  0.007193656    171.18291    2472.7554 
  386600     984.0143    77.248329      2204118          147  0.007193656    137.60573    2466.5346 
  386700    1029.8069    81.404398      2204118          147  0.007193656    151.72646    2589.0356 
  386800     1080.899    83.223558      2204118          147  0.007193656     145.9258    2704.1577 
  386900    1011.6558    82.676433      2204118          147  0.007193656    166.20594    2560.5555 
  387000    990.32626    82.366824      2204118          147  0.007193656     171.7259    2515.5936 
  387100    1001.7311     79.33774      2204118          147  0.007193656    146.44408    2517.3043 
  387200     1012.797    76.253162      2204118          147  0.007193656    120.15657    2517.2071 
  387300    964.29915     80.19196      2204118          147  0.007193656    166.89082    2449.1585 
  387400    962.70548    82.042235      2204118          147  0.007193656    179.49861    2457.9945 
  387500    1035.8602    83.960765      2204118          147  0.007193656     167.0025    2618.6383 
  387600     1027.084    82.620319      2204118          147  0.007193656    160.98938     2591.854 
  387700    983.93876    81.093633      2204118          147  0.007193656    165.01238    2493.7624 
  387800    978.90024     82.54489      2204118          147  0.007193656    176.71609    2493.5411 
  387900    994.07902    85.864788      2204118          147  0.007193656    195.45834     2548.208 
  388000    1025.7023    80.832472      2204118          147  0.007193656    147.44733    2575.0417 
  388100    1002.9386    81.145473      2204118          147  0.007193656    159.52714    2533.2453 
  388200    998.28931      76.8303      2204118          147  0.007193656    127.92912    2490.6435 
  388300    968.36235    84.116986      2204118          147  0.007193656    193.01588    2484.9002 
  388400    1065.9426    85.800155      2204118          147  0.007193656    168.65998    2691.4936 
  388500    1053.0482    85.270191      2204118          147  0.007193656    168.23112    2660.5469 
  388600    1002.9948     83.67295      2204118          147  0.007193656    174.24832    2548.0996 
  388700    972.04841    85.814746      2204118          147  0.007193656    201.54165      2502.15 
  388800    989.74543    89.884696      2204118          147  0.007193656    225.55818    2568.0512 
  388900    1072.6129    83.895369      2204118          147  0.007193656    149.71867    2688.3394 
  389000     996.8893    86.746014      2204118          147  0.007193656     198.2291      2557.63 
  389100    980.10789    87.118171      2204118          147  0.007193656    205.66805    2525.3513 
  389200    1007.6181    87.552025      2204118          147  0.007193656    199.13484    2583.9283 
  389300    1032.7915    85.066542      2204118          147  0.007193656    172.74793    2617.1207 
  389400    971.08019     84.02963      2204118          147  0.007193656    187.96857    2486.2854 
  389500    963.54275    79.076234      2204118          147  0.007193656    152.57124    2433.0487 
  389600    987.59004    84.583851      2204118          147  0.007193656    184.30014    2521.6919 
  389700    1006.4529    86.344071      2204118          147  0.007193656    188.95393    2570.9896 
  389800     1001.473    86.626201      2204118          147  0.007193656     192.2108    2562.4602 
  389900    992.29749    85.664079      2204118          147  0.007193656    187.34086     2535.874 
  390000    978.35903     87.03633      2204118          147  0.007193656    202.21812    2517.7622 
  390100    1004.4365    88.912636      2204118          147  0.007193656    206.94553    2584.2088 
  390200    1047.0447    88.716967      2204118          147  0.007193656    191.82975    2669.9365 
  390300    997.21194    86.059081      2204118          147  0.007193656    191.86107    2552.0256 
  390400    974.74473    81.508971      2204118          147  0.007193656    168.24525    2475.2352 
  390500    998.91873    78.963189      2204118          147  0.007193656    142.22287    2506.4269 
  390600    1002.7415    81.215184      2204118          147  0.007193656    158.18035    2531.4319 
  390700    1014.3938    80.325177      2204118          147  0.007193656    147.54169    2548.3715 
  390800    1006.2813    79.198999      2204118          147  0.007193656    142.39917    2524.0287 
  390900    975.18723     77.98964      2204118          147  0.007193656    143.26456    2451.3018 
  391000    967.46267     83.95922      2204118          147  0.007193656    188.67901     2478.434 
  391100     1032.884    85.393206      2204118          147  0.007193656    174.14603    2618.7378 
  391200    1028.7561    84.279493      2204118          147  0.007193656    167.52736    2602.3494 
  391300    982.11494    81.052892      2204118          147  0.007193656    161.14846    2485.5819 
  391400    987.70323    77.935128      2204118          147  0.007193656    136.18225    2473.8419 
  391500    992.87891    80.124484      2204118          147  0.007193656    151.71948    2501.6287 
  391600    1011.1001      80.0387      2204118          147  0.007193656    144.83003    2537.8645 
  391700    1005.9618    81.923183      2204118          147  0.007193656    160.32077    2541.1941 
  391800    972.30235    84.221249      2204118          147  0.007193656    190.40608    2491.6155 
  391900    994.62602    78.462003      2204118          147  0.007193656    139.90687    2493.9511 
  392000    1015.7122    80.342538      2204118          147  0.007193656    145.93271    2549.8828 
  392100    1012.3926    85.907659      2204118          147  0.007193656     187.8773    2583.9708 
  392200    1008.8853    86.285865      2204118          147  0.007193656    191.54559    2579.3383 
  392300      987.739    81.671594      2204118          147  0.007193656    165.54592    2503.2902 
  392400    967.93532    76.325972      2204118          147  0.007193656    132.62049    2423.4942 
  392500    978.19929    81.862101      2204118          147  0.007193656    169.95913    2485.1252 
  392600    1037.2385    85.737238      2204118          147  0.007193656    175.30707    2630.2049 
  392700    1014.9786     85.68752      2204118          147  0.007193656    181.18274    2583.3967 
  392800    981.03873    85.830557      2204118          147  0.007193656    196.55271     2518.439 
  392900    1016.3305     75.05801      2204118          147  0.007193656    105.84582    2511.2594 
  393000    947.24296     74.50714      2204118          147  0.007193656    128.51307    2370.4128 
  393100    913.53809    78.976586      2204118          147  0.007193656    174.15601    2336.2843 
  393200    988.84562    80.847023      2204118          147  0.007193656    160.68103    2501.0444 
  393300    1018.2322    82.645784      2204118          147  0.007193656    164.56168    2574.4762 
  393400    1014.6915    81.071855      2204118          147  0.007193656    154.92006    2556.4546 
  393500    985.95521    74.308196      2204118          147  0.007193656    115.55365    2449.0761 
  393600    957.04214      75.0856      2204118          147  0.007193656    131.88141    2396.9735 
  393700    1023.7205    80.666318      2204118          147  0.007193656     147.5793    2570.4834 
  393800    1027.1559    86.509811      2204118          147  0.007193656    188.73284    2619.7676 
  393900    991.24901    85.893464      2204118          147  0.007193656    196.52913    2542.5808 
  394000    988.72174    79.819175      2204118          147  0.007193656    153.35464    2493.4248 
  394100    989.44825    78.799755      2204118          147  0.007193656    146.84295    2488.6326 
  394200    1015.3756    81.811318      2204118          147  0.007193656    159.04569    2562.1992 
  394300    1026.9297    88.214076      2204118          147  0.007193656    201.94935    2632.4487 
  394400    1013.5078    83.875157      2204118          147  0.007193656    174.57733    2573.3104 
  394500    969.17876     77.24048      2204118          147  0.007193656    141.25833    2435.0749 
  394600    969.22587    79.552821      2204118          147  0.007193656    157.61322    2451.5413 
  394700    1000.1457    84.186534      2204118          147  0.007193656    179.15184      2546.26 
  394800    1009.0237    85.271363      2204118          147  0.007193656    183.04683     2571.167 
  394900    994.49612      86.4001      2204118          147  0.007193656    197.68885    2551.4257 
  395000    995.05047    83.674559      2204118          147  0.007193656    178.48506    2533.5339 
  395100     997.5681    80.110879      2204118          147  0.007193656    152.44075    2513.4482 
  395200    986.43011    77.736505      2204118          147  0.007193656    140.15177    2474.7982 
  395300    983.28058    78.904843      2204118          147  0.007193656    150.07086    2477.2631 
  395400    1015.3693    83.073339      2204118          147  0.007193656    169.54594    2572.6845 
  395500    1050.0319    80.767522      2204118          147  0.007193656    140.44666    2625.6234 
  395600    977.30286    78.803375      2204118          147  0.007193656    152.82823    2465.8727 
  395700     966.4447    78.396832      2204118          147  0.007193656    153.11248    2440.4582 
  395800    1009.1469    76.607137      2204118          147  0.007193656    123.12682    2511.5386 
  395900    1002.7259    80.813253      2204118          147  0.007193656    155.51041    2528.7252 
  396000    993.16489     84.53774      2204118          147  0.007193656    185.39556    2535.9817 
  396100    1032.9791    88.949661      2204118          147  0.007193656    204.63319    2649.4501 
  396200    1058.9486    85.556604      2204118          147  0.007193656    169.64239    2675.9229 
  396300    984.64416    83.490307      2204118          147  0.007193656    181.88082    2512.3004 
  396400    982.27717    81.953781      2204118          147  0.007193656    171.79339    2496.6108 
  396500    1014.8458    81.466662      2204118          147  0.007193656    156.58446    2558.4842 
  396600    1035.3684    78.787233      2204118          147  0.007193656    128.38918    2578.8609 
  396700    942.78243    79.688169      2204118          147  0.007193656    167.97725      2399.32 
  396800    965.98477     79.06351      2204118          147  0.007193656    155.67761    2441.9348 
  396900    1026.2299    77.244565      2204118          147  0.007193656    122.30356    2551.1468 
  397000    996.59683     81.57705      2204118          147  0.007193656    166.40511    2525.1138 
  397100    989.67691    79.841701      2204118          147  0.007193656    155.32792    2497.6588 
  397200    993.57434    82.410708      2204118          147  0.007193656    171.53512    2523.0903 
  397300    1033.7101    86.917859      2204118          147  0.007193656    188.48043    2635.0275 
  397400     1022.535    89.316867      2204118          147  0.007193656    210.27913    2630.3772 
  397500    975.27684    84.826332      2204118          147  0.007193656    195.11091    2503.3602 
  397600    980.39464    79.412574      2204118          147  0.007193656    154.17488    2474.5368 
  397700    1014.7509    83.760021      2204118          147  0.007193656    175.08475    2576.7599 
  397800    1083.1793    84.386999      2204118          147  0.007193656    154.62387    2718.2527 
  397900    1028.6017    82.620287      2204118          147  0.007193656    161.60939    2596.0659 
  398000    991.03492    82.467061      2204118          147  0.007193656      174.385      2519.93 
  398100    987.23821    79.637193      2204118          147  0.007193656    154.98151    2491.5405 
  398200    999.82105    78.750664      2204118          147  0.007193656    144.47491    2510.8146 
  398300    1028.3771    79.622798      2204118          147  0.007193656    139.89884    2573.8239 
  398400    1010.5469    83.264397      2204118          147  0.007193656    172.10841    2563.8337 
  398500    966.55854    82.011809      2204118          147  0.007193656    176.79039    2464.4056 
  398600    969.20047    82.809081      2204118          147  0.007193656    181.39277    2475.2607 
  398700    1038.5307    84.384036      2204118          147  0.007193656    168.77662    2626.7328 
  398800    1017.6932    86.069678      2204118          147  0.007193656    189.16824     2597.807 
  398900    1003.0062    81.173473      2204118          147  0.007193656    157.98899    2531.8671 
  399000     983.5301    83.012885      2204118          147  0.007193656    179.96356    2507.7464 
  399100    1000.9005    80.476811      2204118          147  0.007193656    155.14022    2524.0346 
  399200    1011.1328     77.52811      2204118          147  0.007193656    129.90929    2523.0211 
  399300    948.80156    76.597566      2204118          147  0.007193656    146.33632    2391.9249 
  399400    947.93734    72.737517      2204118          147  0.007193656    116.24437    2359.7876 
  399500    1003.1192    79.463192      2204118          147  0.007193656    145.51485    2519.6605 
  399600    1024.7028    80.630289      2204118          147  0.007193656    145.08291    2570.3117 
  399700    988.86241    83.456367      2204118          147  0.007193656     177.3741    2517.7773 
  399800    962.97122    87.707339      2204118          147  0.007193656    218.25951    2497.3843 
  399900    1057.6239    86.529471      2204118          147  0.007193656    176.22775    2679.3731 
  400000    1040.0457    83.901416      2204118          147  0.007193656    164.09699    2625.6388 
  400100    992.01092    82.398392      2204118          147  0.007193656    171.58955    2519.4445 
Loop time of 25.6718 on 1 procs for 400000 steps with 795 atoms

Performance: 336.557 ns/day, 0.071 hours/ns, 15581.329 timesteps/s
96.4% CPU use with 1 MPI tasks x no OpenMP threads

MPI task timing breakdown:
Section |  min time  |  avg time  |  max time  |%varavg| %total
---------------------------------------------------------------
Pair    | 11.537     | 11.537     | 11.537     |   0.0 | 44.94
Neigh   | 4.8007     | 4.8007     | 4.8007     |   0.0 | 18.70
Comm    | 0.89661    | 0.89661    | 0.89661    |   0.0 |  3.49
Output  | 1.6518     | 1.6518     | 1.6518     |   0.0 |  6.43
Modify  | 6.1224     | 6.1224     | 6.1224     |   0.0 | 23.85
Other   |            | 0.6634     |            |       |  2.58

Nlocal:            795 ave         795 max         795 min
Histogram: 1 0 0 0 0 0 0 0 0 0
Nghost:            145 ave         145 max         145 min
Histogram: 1 0 0 0 0 0 0 0 0 0
Neighs:           1645 ave        1645 max        1645 min
Histogram: 1 0 0 0 0 0 0 0 0 0

Total # of neighbors = 1645
Ave neighs/atom = 2.0691824
Neighbor list builds = 15702
Dangerous builds = 18

write_data graphene_single_layer_LJ_795C_after_temp_1000K.data
System init for write_data ...
  generated 0 of 0 mixed pair_coeff terms from geometric mixing rule
Total wall time: 0:00:25
