# System definition
read_data graphene_single_layer_x-45_y-45_795_C.data
Reading data file ...
  orthogonal box = (-51 -51 -51) to (96 96 51)
  1 by 1 by 1 MPI processor grid
  reading atoms ...
  795 atoms
  read_data CPU = 0.012 seconds
pair_style lj/cut 6
pair_coeff      1 1 0.066047 3.4

# Virtual force wall to keep the cylinder shape
#region myCylinder cylinder z 0. 0. 20.3 -22.079997 505.920003 units box
#fix wall all wall/region myCylinder lj93 1.0 1.0 2.5

# Minimization
timestep 0.25
thermo 100
thermo_style custom step temp press vol lx density pe etotal
dump 2 all custom 1000 graphene_single_layer_LJ_795C_after_temp_400K.lammpstrj id type x y z
min_style cg
minimize 1.0e-6 1.0e-6 100 1000
WARNING: Using 'neigh_modify every 1 delay 0 check yes' setting during minimization (../min.cpp:187)
  generated 0 of 0 mixed pair_coeff terms from geometric mixing rule
Neighbor list info ...
  update every 1 steps, delay 0 steps, check yes
  max neighbors/atom: 10000, page size: 100000
  master list distance cutoff = 6.4
  ghost atom cutoff = 6.4
  binsize = 3.2, bins = 46 46 32
  1 neighbor lists, perpetual/occasional/extra = 1 0 0
  (1) pair lj/cut, perpetual
      attributes: half, newton on
      pair build: half/bin/atomonly/newton
      stencil: half/bin/3d
      bin: standard
Per MPI rank memory allocation (min/avg/max) = 5.96 | 5.96 | 5.96 Mbytes
Step Temp Press Volume Lx Density PotEng TotEng 
       0            0    1335313.5      2204118          147  0.007193656     10699602     10699602 
     100            0     61841.43      2204118          147  0.007193656    488621.59    488621.59 
Loop time of 0.0594862 on 1 procs for 100 steps with 795 atoms

100.0% CPU use with 1 MPI tasks x no OpenMP threads

Minimization stats:
  Stopping criterion = max iterations
  Energy initial, next-to-last, final = 
      10699602.3573369   495470.853828546   488621.590421788
  Force two-norm initial, final = 694694.42 29375.63
  Force max component initial, final = 79169.705 9280.0147
  Final line search alpha, max atom move = 3.8811533e-05 0.36017159
  Iterations, force evaluations = 100 117

MPI task timing breakdown:
Section |  min time  |  avg time  |  max time  |%varavg| %total
---------------------------------------------------------------
Pair    | 0.039408   | 0.039408   | 0.039408   |   0.0 | 66.25
Neigh   | 0.016357   | 0.016357   | 0.016357   |   0.0 | 27.50
Comm    | 0.0003651  | 0.0003651  | 0.0003651  |   0.0 |  0.61
Output  | 9.74e-05   | 9.74e-05   | 9.74e-05   |   0.0 |  0.16
Modify  | 0          | 0          | 0          |   0.0 |  0.00
Other   |            | 0.003258   |            |       |  5.48

Nlocal:            795 ave         795 max         795 min
Histogram: 1 0 0 0 0 0 0 0 0 0
Nghost:              0 ave           0 max           0 min
Histogram: 1 0 0 0 0 0 0 0 0 0
Neighs:          13073 ave       13073 max       13073 min
Histogram: 1 0 0 0 0 0 0 0 0 0

Total # of neighbors = 13073
Ave neighs/atom = 16.444025
Neighbor list builds = 35
Dangerous builds = 0
#timestep 0.25
fix 1 all nvt temp 400.0 400.0 $(100.0*dt)
fix 1 all nvt temp 400.0 400.0 25
run 400000
  generated 0 of 0 mixed pair_coeff terms from geometric mixing rule
Per MPI rank memory allocation (min/avg/max) = 4.835 | 4.835 | 4.835 Mbytes
Step Temp Press Volume Lx Density PotEng TotEng 
     100            0     61841.43      2204118          147  0.007193656    488621.59    488621.59 
     200    17521.575    23669.198      2204118          147  0.007193656    178084.13    219553.55 
     300    6308.2808    12466.504      2204118          147  0.007193656    93847.031    108777.24 
     400    3494.4272    8228.0008      2204118          147  0.007193656    61586.389    69856.871 
     500    2281.5911    6026.1352      2204118          147  0.007193656    44807.209    50207.195 
     600    1654.4321    4683.6657      2204118          147  0.007193656    34575.338    38490.987 
     700    1277.7612     3780.064      2204118          147  0.007193656    27697.663    30721.821 
     800    1032.0837    3132.9704      2204118          147  0.007193656    22781.321    25224.019 
     900    862.94619    2647.8554      2204118          147  0.007193656    19103.306    21145.695 
    1000    741.60437    2271.4457      2204118          147  0.007193656    16255.799    18011.001 
    1100    652.21577    1971.3869      2204118          147  0.007193656    13991.066    15534.707 
    1200    585.11632    1726.8702      2204118          147  0.007193656    12149.734    13534.566 
    1300    534.17392    1524.0283      2204118          147  0.007193656    10625.832    11890.096 
    1400     495.7299    1353.0435      2204118          147  0.007193656    9344.1097    10517.385 
    1500    466.84765    1206.8765      2204118          147  0.007193656    8250.9016    9355.8194 
    1600    445.08425    1080.5728      2204118          147  0.007193656    7308.5455    8361.9545 
    1700    428.86878    970.54842      2204118          147  0.007193656    6489.8865    7504.9174 
    1800    417.12544    874.07651      2204118          147  0.007193656    5774.0791    6761.3162 
    1900    409.29821    788.87381      2204118          147  0.007193656    5143.6228    6112.3348 
    2000    404.48849    713.02997      2204118          147  0.007193656    4584.0778    5541.4062 
    2100    401.21487     645.1843      2204118          147  0.007193656    4085.4314     5035.012 
    2200    398.69417    584.39762      2204118          147  0.007193656    3640.7311    4584.3458 
    2300    397.07616    529.86088      2204118          147  0.007193656     3243.488    4183.2733 
    2400    396.39474    480.84095      2204118          147  0.007193656     2888.012    3826.1844 
    2500    396.21607    436.69041      2204118          147  0.007193656    2569.5474     3507.297 
    2600    396.07083     396.8557      2204118          147  0.007193656    2283.8677    3221.2736 
    2700    395.91927    360.90796      2204118          147  0.007193656    2027.7384    2964.7855 
    2800    395.99721    328.45483      2204118          147  0.007193656    1797.9671    2735.1987 
    2900    396.34156    299.12935      2204118          147  0.007193656    1591.6953    2529.7419 
    3000    396.69861    272.60318      2204118          147  0.007193656    1406.5961    2345.4878 
    3100    396.87211    248.57726      2204118          147  0.007193656    1240.3247     2179.627 
    3200    396.98477    226.83049      2204118          147  0.007193656    1091.2402    2030.8092 
    3300     397.2446    207.13102      2204118          147  0.007193656    957.28164    1897.4655 
    3400    397.59759    189.26615      2204118          147  0.007193656    836.75161    1777.7709 
    3500    397.83271    173.05312      2204118          147  0.007193656    728.36544    1669.9412 
    3600    397.92663    158.35248      2204118          147  0.007193656     631.2262    1573.0243 
    3700    398.06238     145.0018      2204118          147  0.007193656     543.7675    1485.8869 
    3800    398.31514    132.87479      2204118          147  0.007193656    465.00719    1407.7248 
    3900    398.54322    121.86086      2204118          147  0.007193656    394.27759     1337.535 
    4000    398.63416      111.858      2204118          147  0.007193656    330.91258    1274.3852 
    4100     398.6834    102.77246      2204118          147  0.007193656    274.12895    1217.7181 
    4200    398.82927    94.523941      2204118          147  0.007193656    223.26605    1167.2005 
    4300    399.02797    87.045845      2204118          147  0.007193656    177.96611    1122.3708 
    4400    399.12911    80.244107      2204118          147  0.007193656    137.41871    1082.0628 
    4500    399.12985    74.063974      2204118          147  0.007193656    101.27859    1045.9244 
    4600    399.17988    68.450948      2204118          147  0.007193656    69.035399    1013.7996 
    4700    399.33064    63.377172      2204118          147  0.007193656    40.662391    985.78344 
    4800     399.4527    58.772919      2204118          147  0.007193656    15.536194    960.94613 
    4900     399.4527    54.591387      2204118          147  0.007193656   -6.6605452     938.7494 
    5000    399.43273    50.796255      2204118          147  0.007193656   -26.259776     919.1029 
    5100    399.52152    47.371942      2204118          147  0.007193656   -43.284177    902.28864 
    5200    399.65972    44.269147      2204118          147  0.007193656   -58.184894    887.71501 
    5300    399.69215    41.461418      2204118          147  0.007193656   -70.999288    874.97736 
    5400    399.63495    38.919575      2204118          147  0.007193656   -81.988745    863.85254 
    5500    399.64964     36.60899      2204118          147  0.007193656    -91.62173    854.25433 
    5600    399.77369    34.508727      2204118          147  0.007193656   -100.04131    846.12834 
    5700     399.8463    32.593277      2204118          147  0.007193656   -107.35745    838.98405 
    5800    399.77834     30.83006      2204118          147  0.007193656   -113.91413    832.26652 
    5900    399.70977    29.221449      2204118          147  0.007193656   -119.67813    826.34025 
    6000    399.78619     27.77377      2204118          147  0.007193656   -124.53938    821.65985 
    6100     399.9172    26.466774      2204118          147  0.007193656   -128.60624    817.90305 
    6200    399.92765    25.276984      2204118          147  0.007193656    -131.9472    814.58685 
    6300    399.83812    24.187858      2204118          147  0.007193656   -134.71084     811.6113 
    6400    399.81495    23.199843      2204118          147  0.007193656   -136.96416    809.30315 
    6500    399.90699    22.318095      2204118          147  0.007193656   -138.62421    807.86093 
    6600    399.97671    21.524116      2204118          147  0.007193656   -139.81684    806.83332 
    6700    399.92881    20.801279      2204118          147  0.007193656   -140.64642    805.89035 
    6800    399.86719    20.151111      2204118          147  0.007193656   -141.07579    805.31515 
    6900    399.91595    19.570815      2204118          147  0.007193656    -141.1696    805.33675 
    7000    400.00692    19.050016      2204118          147  0.007193656   -140.98402    805.73764 
    7100     399.9951    18.575143      2204118          147  0.007193656   -140.58488     806.1088 
    7200    399.90851    18.145614      2204118          147  0.007193656   -139.96968    806.51906 
    7300    399.90165    17.766847      2204118          147  0.007193656   -139.13619     807.3363 
    7400    399.99526    17.435349      2204118          147  0.007193656   -138.11795     808.5761 
    7500    400.04043    17.142401      2204118          147  0.007193656   -136.89776    809.90319 
    7600    399.96939    16.875874      2204118          147  0.007193656   -135.58453    811.04831 
    7700    399.90866    16.640281      2204118          147  0.007193656   -134.17142    812.31766 
    7800    399.96719    16.439986      2204118          147  0.007193656   -132.64227    813.98536 
    7900    400.05212    16.266718      2204118          147  0.007193656   -131.02995    815.79867 
    8000    400.02472    16.110868      2204118          147  0.007193656   -129.35617    817.40761 
    8100    399.93548    15.974857      2204118          147  0.007193656   -127.59956    818.95302 
    8200    399.93914    15.862284      2204118          147  0.007193656   -125.80538    820.75585 
    8300    400.03309    15.772271      2204118          147  0.007193656   -123.96583    822.81776 
    8400    400.06229    15.694987      2204118          147  0.007193656   -122.09924    824.75347 
    8500     399.9803    15.626094      2204118          147  0.007193656   -120.22282    826.43582 
    8600    399.92781    15.570127      2204118          147  0.007193656   -118.36011    828.17431 
    8700    399.99588    15.531815      2204118          147  0.007193656   -116.49205    830.20347 
    8800    400.07185    15.505021      2204118          147  0.007193656    -114.6159    832.25941 
    8900    400.02927    15.482565      2204118          147  0.007193656   -112.73721    834.03734 
    9000    399.94136    15.466213      2204118          147  0.007193656   -110.87721    835.68928 
    9100    399.95761    15.462622      2204118          147  0.007193656   -109.03878    837.56615 
    9200    400.05159    15.470416      2204118          147  0.007193656   -107.21559    839.61178 
    9300    400.06554    15.481806      2204118          147  0.007193656   -105.40169    841.45871 
    9400    399.97651    15.495664      2204118          147  0.007193656     -103.591    843.05867 
    9500    399.93568    15.516834      2204118          147  0.007193656   -101.82018    844.73286 
    9600     400.0125    15.549282      2204118          147  0.007193656   -100.07307    846.66179 
    9700    400.07825    15.586112      2204118          147  0.007193656   -98.351964    848.53851 
    9800    400.02285    15.623302      2204118          147  0.007193656   -96.626145    850.13321 
    9900    399.94102    15.662753      2204118          147  0.007193656   -94.933392    851.63228 
   10000    399.97139    15.708703      2204118          147  0.007193656   -93.308633    853.32892 
   10100    400.06347    15.761737      2204118          147  0.007193656   -91.694152    855.16135 
   10200    400.06198    15.810803      2204118          147  0.007193656   -90.141295    856.71067 
   10300    399.96955     15.85766      2204118          147  0.007193656   -88.617379    858.01583 
   10400    399.94294    15.911032      2204118          147  0.007193656   -87.099048    859.47118 
   10500    400.02814    15.967045      2204118          147  0.007193656    -85.68187       861.09 
   10600    400.08152    16.024395      2204118          147  0.007193656   -84.264579    862.63364 
   10700     400.0136    16.076305      2204118          147  0.007193656   -82.883558    863.85389 
   10800    399.93813    16.125894      2204118          147  0.007193656   -81.578754    864.98008 
   10900    399.98239    16.185077      2204118          147  0.007193656   -80.256559    866.40703 
   11000    400.07158    16.244727      2204118          147  0.007193656   -79.009292     867.8654 
   11100    400.05409    16.299681      2204118          147  0.007193656   -77.800428    869.03286 
   11200    399.95898    16.352984      2204118          147  0.007193656   -76.603672    870.00451 
   11300    399.94685    16.408925      2204118          147  0.007193656   -75.478502    871.10098 
   11400    400.03794    16.470505      2204118          147  0.007193656   -74.389978    872.40509 
   11500    400.07879    16.531556      2204118          147  0.007193656   -73.313299    873.57846 
   11600     400.0011     16.58641      2204118          147  0.007193656   -72.284854    874.42302 
   11700    399.93617    16.644923      2204118          147  0.007193656   -71.246217    875.30798 
   11800    399.99343    16.706878      2204118          147  0.007193656     -70.2895    876.40021 
   11900    400.07597    16.770631      2204118          147  0.007193656   -69.362923    877.52214 
   12000    400.04389    16.829943      2204118          147  0.007193656   -68.456624    878.35252 
   12100    399.95088    16.884483      2204118          147  0.007193656   -67.620497    878.96851 
   12200    399.95352    16.943027      2204118          147  0.007193656   -66.836536    879.75873 
   12300    400.04696    17.009484      2204118          147  0.007193656    -66.03527    880.78115 
   12400    400.07387    17.075012      2204118          147  0.007193656   -65.234835    881.64526 
   12500     399.9887    17.135294      2204118          147  0.007193656   -64.469515    882.20901 
   12600    399.93464    17.196404      2204118          147  0.007193656   -63.754814    882.79578 
   12700    400.00183    17.266001      2204118          147  0.007193656    -63.03619    883.67342 
   12800    400.07655     17.33289      2204118          147  0.007193656   -62.405673    884.48077 
   12900    400.03185    17.394359      2204118          147  0.007193656   -61.801972    884.97869 
   13000    399.94544    17.454626      2204118          147  0.007193656   -61.215288    885.36084 
   13100    399.96276    17.522815      2204118          147  0.007193656   -60.609771    886.00736 
   13200    400.05662    17.591722      2204118          147  0.007193656   -60.084092    886.75518 
   13300     400.0684    17.654446      2204118          147  0.007193656   -59.638371    887.22879 
   13400    399.96247    17.722194      2204118          147  0.007193656   -59.145536    887.47091 
   13500    399.77619    17.850806      2204118          147  0.007193656   -58.246264     887.9293 
   13600    399.48995    18.165512      2204118          147  0.007193656   -55.992786    889.50533 
   13700    401.10827     18.15804      2204118          147  0.007193656   -56.884205    892.44407 
   13800    400.56067    18.197552      2204118          147  0.007193656   -56.802863    891.22938 
   13900    397.57817    18.714216      2204118          147  0.007193656   -52.504692    888.46867 
   14000    399.01244    19.326062      2204118          147  0.007193656   -49.184407    895.18355 
   14100    403.14254    19.686922      2204118          147  0.007193656   -48.686911    905.45602 
   14200    401.94829    19.804187      2204118          147  0.007193656   -48.270066    903.04635 
   14300    395.45777    20.511532      2204118          147  0.007193656   -41.862922    894.09196 
   14400    396.18591    21.751854      2204118          147  0.007193656   -34.357079    903.32113 
   14500    404.35575    23.000446      2204118          147  0.007193656   -29.328797    927.68549 
   14600    407.22226    23.144866      2204118          147  0.007193656   -30.639286    933.15937 
   14700    396.93054     22.97595      2204118          147  0.007193656   -29.703855    909.73673 
   14800    388.21086    24.394258      2204118          147  0.007193656   -17.581794    901.22138 
   14900    402.61315     25.58974      2204118          147  0.007193656    -15.54738     937.3426 
   15000    411.09395    27.329765      2204118          147  0.007193656   -7.1996587    965.76237 
   15100    400.70157    28.002885      2204118          147  0.007193656  -0.07357149    948.29214 
   15200    389.83409    28.312704      2204118          147  0.007193656    4.6598773    927.30485 
   15300    397.42229    29.014619      2204118          147  0.007193656    6.2153124    946.81975 
   15400    412.53655    28.769211      2204118          147  0.007193656   -1.8015012    974.57481 
   15500     398.8097    30.173617      2204118          147  0.007193656    13.324777    957.21289 
   15600    393.42105    29.471492      2204118          147  0.007193656    9.6888666    940.82333 
   15700    401.04283     28.67555      2204118          147  0.007193656   0.68252634    949.85593 
   15800    405.05485    28.443887      2204118          147  0.007193656   -3.0993384    955.56956 
   15900    394.86802    29.672198      2204118          147  0.007193656    8.7716633    943.33076 
   16000    393.27848    31.307251      2204118          147  0.007193656     20.92821    951.72524 
   16100    411.56191    30.563164      2204118          147  0.007193656     8.279557    982.34914 
   16200    407.74421    29.848013      2204118          147  0.007193656    3.8201049     968.8541 
   16300    385.97807    30.373088      2204118          147  0.007193656    14.567574    928.08627 
   16400    387.11983    32.170503      2204118          147  0.007193656    26.256221    942.47718 
   16500    415.21658    33.254647      2204118          147  0.007193656    22.967449    1005.6868 
   16600    415.52303    33.817951      2204118          147  0.007193656     25.90066    1009.3453 
   16700    389.65701    33.087945      2204118          147  0.007193656    29.307833     951.5337 
   16800    384.02197    32.246871      2204118          147  0.007193656    25.159885    934.04895 
   16900    402.69272    33.318901      2204118          147  0.007193656    26.263755    979.34207 
   17000    417.04269    34.651512      2204118          147  0.007193656    31.068681      1018.11 
   17100    407.93545    32.310801      2204118          147  0.007193656    16.711293    982.19789 
   17200    379.14701    31.881587      2204118          147  0.007193656    23.271053    920.62223 
   17300    384.29661    33.440865      2204118          147  0.007193656    32.005863    941.54493 
   17400    420.03549    34.909257      2204118          147  0.007193656    29.011998    1023.1365 
   17500    421.46855    34.986961      2204118          147  0.007193656    28.355468    1025.8717 
   17600    384.76431    33.784908      2204118          147  0.007193656    32.218207    942.86422 
   17700    377.21753    32.844548      2204118          147  0.007193656    28.090606    920.87517 
   17800     409.9424    32.904877      2204118          147  0.007193656    17.522072    987.75865 
   17900    424.90931    32.686998      2204118          147  0.007193656      11.0218    1016.6815 
   18000    392.48856    31.979979      2204118          147  0.007193656    17.289184    946.21666 
   18100    373.88952    31.960942      2204118          147  0.007193656    23.406028    908.31397 
   18200    401.73723    32.839602      2204118          147  0.007193656    19.607851    970.42473 
   18300    425.94786    34.259096      2204118          147  0.007193656    21.363539    1029.4812 
   18400    406.09028    33.110206      2204118          147  0.007193656    19.886223    981.00575 
   18500    376.40928     31.85175      2204118          147  0.007193656    21.431872    912.30349 
   18600    387.71481       31.697      2204118          147  0.007193656    16.491519    934.12065 
   18700    420.49057    32.400663      2204118          147  0.007193656    10.131078    1005.3327 
   18800    414.94178    32.720605      2204118          147  0.007193656    14.429078    996.49801 
   18900    383.37608     32.19117      2204118          147  0.007193656    21.515289    928.87568 
   19000    384.34176    31.445928      2204118          147  0.007193656    15.407966    925.05388 
   19100    410.77581    32.235146      2204118          147  0.007193656    11.792794    984.00186 
   19200     414.3306    33.810889      2204118          147  0.007193656    22.369163    1002.9916 
   19300    398.19816    32.495701      2204118          147  0.007193656    18.891658    961.33241 
   19400    388.05166    30.531301      2204118          147  0.007193656    8.7456267      927.172 
   19500    397.61643    29.522843      2204118          147  0.007193656   -1.7141987    939.34972 
   19600     405.0095    30.924159      2204118          147  0.007193656    5.9911488    964.55271 
   19700    403.83686    31.904138      2204118          147  0.007193656    13.180342    968.96656 
   19800    399.10604    31.634977      2204118          147  0.007193656    12.202322    956.79181 
   19900    390.21685    33.382339      2204118          147  0.007193656    28.095731     951.6466 
   20000    403.99182    33.041522      2204118          147  0.007193656    20.118024    976.27099 
   20100    405.26211    34.320128      2204118          147  0.007193656    29.251782    988.41122 
   20200     405.9728    32.306191      2204118          147  0.007193656    13.564361    974.40584 
   20300    390.74737     32.35916      2204118          147  0.007193656    19.080785    943.88728 
   20400    391.61403    33.285246      2204118          147  0.007193656    25.172986    952.03066 
   20500      408.884    34.751014      2204118          147  0.007193656    29.547847    997.27945 
   20600    403.13152    38.445893      2204118          147  0.007193656    59.246625    1013.3635 
   20700    402.31448    37.282442      2204118          147  0.007193656    49.202753    1001.3858 
   20800    388.98683    39.358649      2204118          147  0.007193656    68.748238    989.38794 
   20900    412.37785    36.116703      2204118          147  0.007193656    35.417316     1011.418 
   21000    399.95703    37.333001      2204118          147  0.007193656      48.2131    994.81667 
   21100    385.01165    40.779631      2204118          147  0.007193656    78.349157    989.58055 
   21200    411.08418     42.61907      2204118          147  0.007193656    81.861796    1054.8007 
   21300    428.17867    41.079452      2204118          147  0.007193656     64.04148     1077.439 
   21400    392.37312    38.507409      2204118          147  0.007193656    58.321274    986.97552 
   21500    363.53088    38.740274      2204118          147  0.007193656    70.690445    931.08194 
   21600    399.23436    39.342271      2204118          147  0.007193656    60.328581    1005.2218 
   21700    425.22056    45.872596      2204118          147  0.007193656    98.921645     1105.318 
   21800    427.27313    42.793269      2204118          147  0.007193656    74.063236    1085.3175 
   21900     372.2407    41.728196      2204118          147  0.007193656    85.599279    966.60486 
   22000       366.53    42.222032      2204118          147  0.007193656    91.010355    958.50005 
   22100    420.34144    43.883532      2204118          147  0.007193656    83.055189    1077.9038 
   22200    426.17834    50.309279      2204118          147  0.007193656    129.93974    1138.6029 
   22300    417.47416    42.727416      2204118          147  0.007193656    76.978124    1065.0406 
   22400    364.33184    40.412011      2204118          147  0.007193656    79.511753    941.79895 
   22500    371.10234    41.132825      2204118          147  0.007193656    81.932188    960.24353 
   22600    430.67477     42.87516      2204118          147  0.007193656    71.941468    1091.2467 
   22700     427.9782    46.182938      2204118          147  0.007193656     96.52144    1109.4445 
   22800    390.10323    43.094058      2204118          147  0.007193656    87.010889    1010.2928 
   22900    366.16007    42.092291      2204118          147  0.007193656    88.893004    955.50717 
   23000    401.54566    41.602296      2204118          147  0.007193656    73.116912    1023.4804 
   23100    433.44371    42.558341      2204118          147  0.007193656    69.828041    1095.6867 
   23200    407.27574    40.610565      2204118          147  0.007193656    64.931536    1028.8568 
   23300    360.12049    42.170817      2204118          147  0.007193656     93.55121    945.87113 
   23400    388.41632    42.425474      2204118          147  0.007193656    84.393334    1003.6828 
   23500    434.46781    44.366057      2204118          147  0.007193656    80.708339    1108.9908 
   23600    414.71331    45.973549      2204118          147  0.007193656    98.139507    1079.6677 
   23700    372.84109    46.653267      2204118          147  0.007193656    117.59916    1000.0257 
   23800     387.0617    45.492464      2204118          147  0.007193656    104.42321    1020.5066 
   23900    424.33462    45.101941      2204118          147  0.007193656    88.797311    1093.0969 
   24000    407.43833    47.383211      2204118          147  0.007193656    112.91864    1077.2287 
   24100    390.36802    43.154775      2204118          147  0.007193656    87.589966    1011.4986 
   24200    380.32206    42.587944      2204118          147  0.007193656    87.858597    987.99085 
   24300    403.19903    43.089343      2204118          147  0.007193656    83.454246    1037.7309 
   24400    418.13656    44.569671      2204118          147  0.007193656    88.529293    1078.1595 
   24500    401.98439    44.535376      2204118          147  0.007193656    93.187136     1044.589 
   24600    376.76286    45.993469      2204118          147  0.007193656    113.06204    1004.7705 
   24700    406.43814     43.01181      2204118          147  0.007193656    80.560716    1042.5035 
   24800    422.47963    41.375469      2204118          147  0.007193656    63.699396    1063.6086 
   24900    393.46282    40.184505      2204118          147  0.007193656    64.477243    995.71056 
   25000    368.53763    42.759796      2204118          147  0.007193656    91.625561    963.86686 
   25100    404.37212    44.675382      2204118          147  0.007193656    92.765813    1049.8189 
   25200    431.95508    47.033193      2204118          147  0.007193656    100.47733    1122.8127 
   25300    404.24597    45.546892      2204118          147  0.007193656     99.93669    1056.6912 
   25400    375.38825     41.08379      2204118          147  0.007193656    77.873884    966.32897 
   25500     381.4416    40.407343      2204118          147  0.007193656    71.784421    974.56636 
   25600    416.97101    42.002316      2204118          147  0.007193656    71.658984    1058.5306 
   25700    426.59243    41.817877      2204118          147  0.007193656    67.348458    1076.9917 
   25800     387.3862    40.812511      2204118          147  0.007193656    74.348268    991.19967 
   25900    373.17361    39.722293      2204118          147  0.007193656    70.557787    953.77136 
   26000    402.45643    41.162998      2204118          147  0.007193656    69.935976     1022.455 
   26100    428.96263    42.079326      2204118          147  0.007193656    65.497082      1080.75 
   26200    391.75775    45.598677      2204118          147  0.007193656    103.89404    1031.0919 
   26300    385.17875    44.115027      2204118          147  0.007193656    94.053225    1005.6801 
   26400    397.58121    45.484986      2204118          147  0.007193656    100.20426    1041.1848 
   26500    427.35404    41.967713      2204118          147  0.007193656    63.588599    1075.0344 
   26600     392.3528    42.831121      2204118          147  0.007193656    83.411201    1012.0174 
   26700    376.77839    41.615767      2204118          147  0.007193656    79.662674    971.40788 
   26800    399.74886    42.207065      2204118          147  0.007193656    76.512166     1022.623 
   26900    423.71496    42.966105      2204118          147  0.007193656    74.176426    1077.0094 
   27000    407.12411    41.655004      2204118          147  0.007193656     70.50794    1034.0743 
   27100    375.87347    41.815113      2204118          147  0.007193656    83.096973    972.70045 
   27200      390.624    41.364531      2204118          147  0.007193656    74.637142    999.15165 
   27300     419.6876    41.938176      2204118          147  0.007193656     69.36077    1062.6619 
   27400    410.95781    42.070613      2204118          147  0.007193656    74.659302    1047.2991 
   27500    390.20736    38.999473      2204118          147  0.007193656    60.296615    983.82503 
   27600    384.19529     37.56584      2204118          147  0.007193656    52.733368    962.03263 
   27700    400.90073    38.516333      2204118          147  0.007193656    54.280549    1003.1176 
   27800    417.17869    39.218732      2204118          147  0.007193656    53.753809     1041.117 
   27900    401.99564    39.217132      2204118          147  0.007193656    58.961307    1010.3898 
   28000    383.29372    39.067519      2204118          147  0.007193656    63.946868    971.11233 
   28100    393.29374    40.112064      2204118          147  0.007193656    68.125891    998.95903 
   28200    420.03183    40.161272      2204118          147  0.007193656    59.117092     1053.233 
   28300    408.03498    40.445857      2204118          147  0.007193656    66.096744    1031.8189 
   28400    388.56237     38.05105      2204118          147  0.007193656    55.365231    975.00034 
   28500    382.92007    38.297284      2204118          147  0.007193656    59.260908    965.54204 
   28600    406.46945    39.466159      2204118          147  0.007193656    59.447772    1021.4647 
   28700    420.13487    39.880759      2204118          147  0.007193656    57.775108    1052.1348 
   28800    398.03247    38.983881      2204118          147  0.007193656    59.533556    1001.5821 
   28900    381.98551    37.613257      2204118          147  0.007193656    56.024843    960.09409 
   29000    403.03143    35.184777      2204118          147  0.007193656    31.360452    985.24039 
   29100    410.83058    35.528837      2204118          147  0.007193656    31.486298     1003.825 
   29200    391.33782    38.057851      2204118          147  0.007193656    57.380295    983.58425 
   29300    397.15119    37.349973      2204118          147  0.007193656    50.224488     990.1873 
   29400    406.21347    37.425536      2204118          147  0.007193656    48.150874     1009.562 
   29500      404.366    37.230643      2204118          147  0.007193656    47.914325    1004.9529 
   29600    393.90367    37.053899      2204118          147  0.007193656      50.9906    983.26731 
   29700    397.16872    35.850777      2204118          147  0.007193656    41.072284    981.07659 
   29800    405.27063    35.189584      2204118          147  0.007193656    33.442092    992.62169 
   29900    398.48394    36.131814      2204118          147  0.007193656    42.865822    985.98293 
   30000    398.34492    35.783681      2204118          147  0.007193656    40.108794    982.89688 
   30100    404.06001    34.919207      2204118          147  0.007193656    31.795933    988.11029 
   30200    398.93676    34.971511      2204118          147  0.007193656    33.861721    978.05054 
   30300     392.2361    36.262027      2204118          147  0.007193656    45.537122    973.86709 
   30400    401.64035      37.1158      2204118          147  0.007193656    48.267741    998.85532 
   30500    409.26819    37.616031      2204118          147  0.007193656    49.618822    1018.2597 
   30600    404.98013    35.702793      2204118          147  0.007193656    37.822587    996.31466 
   30700    391.33901    33.657845      2204118          147  0.007193656    28.815919    955.02268 
   30800    391.17672    32.804229      2204118          147  0.007193656    23.832825    949.65549 
   30900    406.36711    32.468982      2204118          147  0.007193656    16.087164    977.86187 
   31000    404.34853    33.910785      2204118          147  0.007193656     26.52786    983.52507 
   31100    387.42752    37.615702      2204118          147  0.007193656    58.735377    975.68457 
   31200    401.62672    38.799105      2204118          147  0.007193656    62.164875    1012.7202 
   31300    421.92416     36.84121      2204118          147  0.007193656    40.939601    1039.5342 
   31400    398.23351    35.162499      2204118          147  0.007193656    37.637858    980.16228 
   31500    376.08114    34.538934      2204118          147  0.007193656    41.049686    931.14469 
   31600    397.17125     34.45035      2204118          147  0.007193656    32.625371    972.63567 
   31700    420.90193    35.766183      2204118          147  0.007193656    33.903974    1030.0792 
   31800    408.84334    35.138953      2204118          147  0.007193656    33.174423    1000.8098 
   31900    382.73778     33.74919      2204118          147  0.007193656    31.787481    937.63717 
   32000    385.32382    33.808859      2204118          147  0.007193656    30.857712    942.82795 
   32100    409.63132    36.102609      2204118          147  0.007193656    39.183253    1008.6836 
   32200    422.33196    36.037028      2204118          147  0.007193656    34.202413    1033.7622 
   32300    395.14713    34.708659      2204118          147  0.007193656    34.154542    969.37421 
   32400    376.75504    33.972021      2204118          147  0.007193656     34.97566    926.66562 
   32500      394.113    36.000438      2204118          147  0.007193656    43.584553    976.35669 
   32600    422.69238    38.415965      2204118          147  0.007193656    51.213781    1051.6266 
   32700     418.0066    36.513658      2204118          147  0.007193656    38.732475    1028.0551 
   32800    373.13339    36.770669      2204118          147  0.007193656    57.764559    940.88292 
   32900    387.18555    34.289018      2204118          147  0.007193656    35.283183     951.6597 
   33000     422.2488    33.420379      2204118          147  0.007193656    17.171703    1016.5346 
   33100    407.13737    35.112791      2204118          147  0.007193656    35.639501    999.23723 
   33200    385.17869    34.535102      2204118          147  0.007193656    39.193771    950.82051 
   33300    388.93589    34.735346      2204118          147  0.007193656    39.664961     960.1841 
   33400    411.84045    35.699858      2204118          147  0.007193656    39.023814    1013.7526 
   33500    416.85932    34.906713      2204118          147  0.007193656    30.891046    1017.4983 
   33600    384.04352    35.978284      2204118          147  0.007193656    50.220699    959.16075 
   33700    385.46578    35.305865      2204118          147  0.007193656    44.682398     956.9886 
   33800    409.79304    36.367814      2204118          147  0.007193656    44.559047    1014.4421 
   33900    417.99636    36.603723      2204118          147  0.007193656    44.420837    1033.7192 
   34000     394.6298    35.254409      2204118          147  0.007193656    44.313023     978.3083 
   34100    384.76537      32.4507      2204118          147  0.007193656    27.779666    938.42818 
   34200    397.60283    31.714362      2204118          147  0.007193656    17.536672    958.56842 
   34300     405.2601    34.508768      2204118          147  0.007193656    34.491503    993.64619 
   34400    409.64933    34.903566      2204118          147  0.007193656    34.481278    1004.0242 
   34500    397.87143    34.730703      2204118          147  0.007193656    36.769995    978.43745 
   34600    389.21851    34.909722      2204118          147  0.007193656    40.941937    962.12996 
   34700    400.62385    35.434393      2204118          147  0.007193656     41.13268    989.31446 
   34800    416.44613    33.984241      2204118          147  0.007193656     24.90665     1010.536 
   34900    394.85831    34.550041      2204118          147  0.007193656    37.283994     971.8201 
   35000    388.99107     33.11501      2204118          147  0.007193656    28.771485    949.42124 
   35100     396.4091    34.215647      2204118          147  0.007193656    34.720457    972.92693 
   35200    409.21318    35.435016      2204118          147  0.007193656    39.511701    1008.0224 
   35300    409.45255     34.65421      2204118          147  0.007193656    34.322631    1003.3999 
   35400     394.7705    32.629107      2204118          147  0.007193656    25.707745    960.03604 
   35500     388.0568     31.56422      2204118          147  0.007193656    21.465451      939.904 
   35600    403.70968    30.685956      2204118          147  0.007193656    9.9231856    965.40839 
   35700    404.98239    32.400037      2204118          147  0.007193656    22.206117    980.70352 
   35800    399.14572    33.346306      2204118          147  0.007193656     31.40854    976.09192 
   35900    400.19669    32.340106      2204118          147  0.007193656    23.967195    971.13799 
   36000    399.23188    31.878023      2204118          147  0.007193656    21.626859    966.51417 
   36100    397.74477    32.490734      2204118          147  0.007193656    27.555801    968.92347 
   36200    405.31284    31.222872      2204118          147  0.007193656    15.429208    974.70872 
   36300    394.48788    32.856193      2204118          147  0.007193656     31.29506    964.95445 
   36400    398.32485     32.84657      2204118          147  0.007193656    29.350344    972.09092 
   36500    404.77443    32.791582      2204118          147  0.007193656     26.44773    984.45295 
   36600     402.4532    32.607952      2204118          147  0.007193656    25.802501    978.31391 
   36700    395.51335    32.447456      2204118          147  0.007193656    26.597527    962.68397 
   36800    393.58499    33.455281      2204118          147  0.007193656    34.189312    965.71178 
   36900     406.4807     33.53976      2204118          147  0.007193656    30.004691    992.04824 
   37000    408.25862    33.264355      2204118          147  0.007193656    27.732318    993.98379 
   37100    397.57811    31.433446      2204118          147  0.007193656    17.914158    958.88739 
   37200    383.27272    32.480326      2204118          147  0.007193656    30.350478    937.46625 
   37300    401.49812    33.198862      2204118          147  0.007193656      27.2686    977.51957 
   37400    405.82636    37.957089      2204118          147  0.007193656    59.474288    1019.9692 
   37500    413.05985    37.525696      2204118          147  0.007193656    52.361641    1029.9765 
   37600    396.61825    37.292792      2204118          147  0.007193656     57.01247    995.71395 
   37700    390.90223     35.39813      2204118          147  0.007193656    46.063772    971.23678 
   37800    401.66905    33.519053      2204118          147  0.007193656    29.542231    980.19774 
   37900    404.58075    33.305222      2204118          147  0.007193656    28.357779     985.9046 
   38000    400.46394    32.627385      2204118          147  0.007193656      26.1073     973.9106 
   38100    393.51404    32.518342      2204118          147  0.007193656    29.254285    960.60882 
   38200    400.74986     31.06734      2204118          147  0.007193656    16.279423    964.75943 
   38300     400.3884    31.896713      2204118          147  0.007193656    22.917811    970.54234 
   38400    399.47546    32.696445      2204118          147  0.007193656    28.857735    974.32154 
   38500    401.62226    33.220935      2204118          147  0.007193656    31.688765    982.23355 
   38600    404.53307     32.76522      2204118          147  0.007193656    26.772991    984.20697 
   38700    398.23997    32.516335      2204118          147  0.007193656    26.357219    968.89692 
   38800    389.44544    34.477116      2204118          147  0.007193656    43.328601    965.05373 
   38900    398.82198    36.700073      2204118          147  0.007193656    56.555195    1000.4724 
   39000    420.40144    35.175589      2204118          147  0.007193656    37.547354     1032.538 
   39100    399.12686    35.026515      2204118          147  0.007193656    44.938115    989.57688 
   39200    386.61481     32.44127      2204118          147  0.007193656    30.590429    945.61613 
   39300     392.9394    32.608801      2204118          147  0.007193656    30.556669    960.55117 
   39400    414.68785    32.374636      2204118          147  0.007193656    21.509711    1002.9777 
   39500    403.60581    33.888601      2204118          147  0.007193656    36.995303    992.23467 
   39600    394.03393    33.064003      2204118          147  0.007193656    34.283639    966.86865 
   39700    398.09323     31.89343      2204118          147  0.007193656    23.973103    966.16549 
   39800    399.29226    32.833933      2204118          147  0.007193656    29.834457    974.86469 
   39900    399.01793    34.614707      2204118          147  0.007193656    42.062827    986.44376 
   40000    401.43139    35.947642      2204118          147  0.007193656    50.314784    1000.4078 
   40100    407.67662    34.748652      2204118          147  0.007193656    38.882883    1003.7569 
   40200    396.55585    34.291072      2204118          147  0.007193656    39.564921    978.11871 
   40300    389.28667    34.863064      2204118          147  0.007193656     46.50009    967.84944 
   40400    404.78129       34.884      2204118          147  0.007193656    41.697362    999.71882 
   40500    417.34908    33.123423      2204118          147  0.007193656      24.9669    1012.7333 
   40600    396.37829     31.61618      2204118          147  0.007193656    21.653825    959.78738 
   40700    374.78824    32.932157      2204118          147  0.007193656    39.256925    926.29193 
   40800    404.99682    32.377741      2204118          147  0.007193656    24.004345     982.5359 
   40900    424.74729    32.736406      2204118          147  0.007193656    19.656096    1024.9323 
   41000    397.63224    32.586225      2204118          147  0.007193656    27.721766     968.8231 
   41100    375.57805     32.85886      2204118          147  0.007193656    36.781769    925.68608 
   41200    398.11017    33.435701      2204118          147  0.007193656    31.883041    974.11552 
   41300    417.26369    36.413995      2204118          147  0.007193656    46.114032    1033.6784 
   41400    411.50409    36.327133      2204118          147  0.007193656     46.50494    1020.4377 
   41500    386.12358    35.788422      2204118          147  0.007193656    51.167798    965.03087 
   41600    380.56957    37.069741      2204118          147  0.007193656    62.945268    963.66332 
   41700    416.25475    36.134412      2204118          147  0.007193656     43.50529    1028.6817 
   41800    420.34479    35.602075      2204118          147  0.007193656    38.507425     1033.364 
   41900    388.35191    34.447823      2204118          147  0.007193656    41.804861    960.94187 
   42000    379.56644     33.30028      2204118          147  0.007193656    37.079006    935.42287 
   42100     405.0906    33.438422      2204118          147  0.007193656    29.095066    987.84857 
   42200    416.03481     35.51773      2204118          147  0.007193656    40.455554    1025.1114 
   42300    399.19946    36.155762      2204118          147  0.007193656    50.788716    995.59929 
   42400    389.93724    35.564166      2204118          147  0.007193656    50.284284     973.1734 
   42500    401.58203    35.018457      2204118          147  0.007193656    43.259352    993.70892 
   42600    407.68132    34.845411      2204118          147  0.007193656    40.739516    1005.6246 
   42700    403.15354    33.656502      2204118          147  0.007193656    34.227388    988.39633 
   42800    395.60694    32.059964      2204118          147  0.007193656    25.302011    961.60996 
   42900    388.72302    33.172957      2204118          147  0.007193656    35.902219    955.91754 
   43000    406.47149    33.435681      2204118          147  0.007193656    31.435171    993.45692 
   43100    413.99195     33.11365      2204118          147  0.007193656    26.386852    1006.2078 
   43200    393.67649    34.222068      2204118          147  0.007193656    42.175633    973.91466 
   43300    393.95903    33.322559      2204118          147  0.007193656    34.811491    967.21922 
   43400    398.50982    35.296671      2204118          147  0.007193656    47.222607    990.40098 
   43500    407.56601     36.42742      2204118          147  0.007193656    51.215666    1015.8279 
   43600    409.47946    34.581209      2204118          147  0.007193656    35.862729    1005.0036 
   43700    387.05341    34.912714      2204118          147  0.007193656    46.008473    962.07223 
   43800    384.64276    36.650508      2204118          147  0.007193656    59.538332    969.89664 
   43900    409.80435    39.252605      2204118          147  0.007193656    70.199823    1040.1097 
   44000    422.80928    38.795975      2204118          147  0.007193656    61.992947    1062.6824 
   44100    396.02767    36.319833      2204118          147  0.007193656    53.939344    991.24304 
   44200    380.14884    32.909133      2204118          147  0.007193656     35.08459    934.80687 
   44300    389.55951    33.600187      2204118          147  0.007193656    37.321145    959.31626 
   44400    416.61977    35.386209      2204118          147  0.007193656    40.918733    1026.9591 
   44500    418.76485    34.474253      2204118          147  0.007193656    33.379011    1024.4962 
   44600    388.39811    32.380385      2204118          147  0.007193656    28.741795    947.98814 
   44700    378.18827    31.375655      2204118          147  0.007193656    24.382352    919.46443 
   44800    397.12138    34.385462      2204118          147  0.007193656    39.002938    978.89519 
   44900    422.90413    37.335851      2204118          147  0.007193656    50.968345    1051.8823 
   45000    415.21962    35.769317      2204118          147  0.007193656    41.361525     1024.088 
   45100    379.43531    34.328928      2204118          147  0.007193656    43.508766    941.54229 
   45200    378.59552    34.455831      2204118          147  0.007193656    44.822809    940.86876 
   45300    412.24655    36.468808      2204118          147  0.007193656    47.622018     1023.312 
   45400    424.51262    38.129867      2204118          147  0.007193656    55.383284    1060.1041 
   45500    393.64741    38.381202      2204118          147  0.007193656    68.773816     1000.444 
   45600      386.574    34.855011      2204118          147  0.007193656    45.501142    960.43026 
   45700    389.83254    36.807496      2204118          147  0.007193656    59.580313    982.22161 
   45800    418.33822    36.992366      2204118          147  0.007193656    50.666403    1040.7739 
   45900    416.25704    35.709455      2204118          147  0.007193656     41.90281    1027.0846 
   46000    378.80688    36.073202      2204118          147  0.007193656    58.051234    954.59741 
   46100    385.04483    35.346544      2204118          147  0.007193656    50.965011    962.27493 
   46200    421.90828    34.200119      2204118          147  0.007193656    30.288028     1028.845 
   46300    413.02799    34.396109      2204118          147  0.007193656    35.687207    1013.2267 
   46400    380.24961     34.31309      2204118          147  0.007193656    47.230684    947.19146 
   46500      388.515    32.763125      2204118          147  0.007193656    32.621989    952.14499 
   46600    410.37171    34.151621      2204118          147  0.007193656    35.340117    1006.5928 
   46700    414.63869    34.299591      2204118          147  0.007193656    34.755898    1016.1075 
   46800    390.40001    34.346157      2204118          147  0.007193656    43.461602    967.44598 
   46900    385.58504    34.287589      2204118          147  0.007193656    44.606219    957.19469 
   47000    406.47718    35.460104      2204118          147  0.007193656    46.341785     1008.377 
   47100      421.713    34.389633      2204118          147  0.007193656    32.996708    1031.0915 
   47200     393.2323    33.542239      2204118          147  0.007193656    36.853917    967.54164 
   47300    378.42045    32.527796      2204118          147  0.007193656    34.070947    929.70252 
   47400    398.26113    33.865493      2204118          147  0.007193656    36.404849    978.99462 
   47500    421.00562    35.971216      2204118          147  0.007193656    42.886954    1039.3076 
   47600    408.05872    36.127847      2204118          147  0.007193656    48.340916    1014.1193 
   47700    388.38979    33.365927      2204118          147  0.007193656    35.576939     954.8036 
   47800    387.71678    31.723128      2204118          147  0.007193656    24.460576    942.09437 
   47900    402.07855    33.150115      2204118          147  0.007193656    30.221165    981.84588 
   48000    413.15855    34.242441      2204118          147  0.007193656    33.939941    1011.7884 
   48100    404.53306    33.571646      2204118          147  0.007193656    31.693618    989.12758 
   48200    390.12053    32.268204      2204118          147  0.007193656     26.58104    949.90394 
   48300    385.64655    33.881121      2204118          147  0.007193656    39.480144    952.21421 
   48400    412.15117    34.196862      2204118          147  0.007193656    31.387233    1006.8515 
   48500    410.95724    35.931784      2204118          147  0.007193656    43.995123    1016.6336 
   48600    393.06233    35.691825      2204118          147  0.007193656    48.202471    978.48793 
   48700    391.11305    34.287691      2204118          147  0.007193656     38.16991    963.84187 
   48800     394.4817    36.763506      2204118          147  0.007193656    55.165832    988.81059 
   48900    414.38022    36.851306      2204118          147  0.007193656    47.795318    1028.5352 
   49000    402.94395    38.265034      2204118          147  0.007193656    62.210623    1015.8835 
   49100    392.66855     37.02188      2204118          147  0.007193656    56.312299    985.66577 
   49200    389.93612    37.967794      2204118          147  0.007193656    64.995696    987.88216 
   49300    413.24369    36.183232      2204118          147  0.007193656     43.91814    1021.9681 
   49400    407.00873    35.836147      2204118          147  0.007193656    43.862264    1007.1555 
   49500    386.12165    36.217587      2204118          147  0.007193656    53.969377    967.82789 
   49600    395.08358    35.134395      2204118          147  0.007193656     42.26099    977.33026 
   49700    407.44473    36.062117      2204118          147  0.007193656    44.670131    1008.9953 
   49800    405.03681    37.068471      2204118          147  0.007193656    53.162155    1011.7884 
   49900    397.23969    36.249176      2204118          147  0.007193656     50.00172    990.17399 
   50000    394.90779    35.391676      2204118          147  0.007193656    44.733129    979.38634 
   50100    399.25459    35.978891      2204118          147  0.007193656    48.135701    993.07678 
   50200    409.95142    34.725061      2204118          147  0.007193656    35.328022     1005.586 
   50300    397.39044     35.01218      2204118          147  0.007193656    42.373635    982.90269 
   50400    388.71067    35.705037      2204118          147  0.007193656    51.116781    971.10288 
   50500    406.90628    34.587803      2204118          147  0.007193656    36.420402    999.47121 
   50600    401.35416    37.341438      2204118          147  0.007193656    59.438111    1009.3484 
   50700    400.09183    36.413394      2204118          147  0.007193656    52.299461    999.22206 
   50800    397.00909    36.002866      2204118          147  0.007193656    50.280898    989.90739 
   50900    398.49606    36.037149      2204118          147  0.007193656    50.206233    993.35204 
   51000    402.43603    36.059865      2204118          147  0.007193656    49.612158    1002.0829 
   51100     401.6007    35.542459      2204118          147  0.007193656    46.717837    997.21159 
   51200    398.47771    34.490479      2204118          147  0.007193656     40.41364    983.51602 
   51300    399.28979    33.377988      2204118          147  0.007193656    32.280892    977.30527 
   51400    398.98304    33.228811      2204118          147  0.007193656     31.33004    975.62842 
   51500      399.326    33.555312      2204118          147  0.007193656    33.462635    978.57271 
   51600    399.88693    34.183465      2204118          147  0.007193656    37.885306    984.32296 
   51700    398.71885    35.106759      2204118          147  0.007193656    44.881619     988.5547 
   51800    403.44843    34.939334      2204118          147  0.007193656    41.899984    996.76687 
   51900    404.44669    34.032608      2204118          147  0.007193656    34.799102    992.02863 
   52000    394.81129    33.653272      2204118          147  0.007193656    34.564666     968.9895 
   52100    389.36276    35.352057      2204118          147  0.007193656    48.203288    969.73273 
   52200     403.5413     37.21316      2204118          147  0.007193656    56.760676    1011.8474 
   52300    421.28146    35.256893      2204118          147  0.007193656    36.782634    1033.8561 
   52400    400.84587    32.127579      2204118          147  0.007193656    22.024979    970.73222 
   52500    370.14855    32.585381      2204118          147  0.007193656    37.265109    913.31906 
   52600    396.15194    32.455568      2204118          147  0.007193656    26.698074    964.29589 
   52700    420.88859    35.980275      2204118          147  0.007193656    43.647646    1039.7913 
   52800    413.41602    36.594824      2204118          147  0.007193656     50.50003    1028.9578 
   52900    388.70882    34.594419      2204118          147  0.007193656    44.578655    964.56037 
   53000    382.45929    33.739226      2204118          147  0.007193656    40.556002    945.74657 
   53100    404.54445    34.355664      2204118          147  0.007193656    37.224727    994.68563 
   53200     416.2722     36.08398      2204118          147  0.007193656    47.005731    1032.2234 
   53300    411.56201    31.860064      2204118          147  0.007193656    18.221489    992.29131 
   53400    376.88845    30.707803      2204118          147  0.007193656    22.797048    914.80274 
   53500    378.82087    31.672787      2204118          147  0.007193656    28.458609    925.03791 
   53600    415.27864    34.832823      2204118          147  0.007193656    37.741628    1020.6078 
   53700    430.20416    35.739364      2204118          147  0.007193656    38.592387    1056.7838 
   53800    394.01502    33.605909      2204118          147  0.007193656     35.56047    968.10071 
   53900    368.19108    32.757743      2204118          147  0.007193656     38.13281    909.55391 
   54000    394.97579    34.130149      2204118          147  0.007193656    38.205193    973.01934 
   54100    433.88483    35.273614      2204118          147  0.007193656    32.303231    1059.2059 
   54200    408.52129    35.550411      2204118          147  0.007193656    43.501322    1010.3745 
   54300    375.57541    33.363139      2204118          147  0.007193656    39.499322    928.39739 
   54400    388.10341    31.400509      2204118          147  0.007193656    20.812135    939.36099 
   54500    409.56885    34.360982      2204118          147  0.007193656    35.223916    1004.5764 
   54600    416.91345    35.693846      2204118          147  0.007193656    42.005659    1028.7411 
   54700    397.00236    34.866731      2204118          147  0.007193656    43.045329    982.65591 
   54800    387.95646    32.460766      2204118          147  0.007193656    28.727511    946.92859 
   54900    396.38127    31.953032      2204118          147  0.007193656    21.553703     959.6943 
   55000    400.47203    35.463792      2204118          147  0.007193656    45.362388    993.18484 
   55100    410.98537    36.215264      2204118          147  0.007193656    46.225675    1018.9307 
   55200    405.24413    35.178831      2204118          147  0.007193656    40.267213     999.3841 
   55300    386.69815    35.434093      2204118          147  0.007193656    48.717273    963.94022 
   55400    394.35001    35.447648      2204118          147  0.007193656    46.380792    979.71389 
   55500    414.21751    34.934838      2204118          147  0.007193656    36.158111    1016.5129 
   55600    402.27313    35.701228      2204118          147  0.007193656    47.444862    999.53008 
   55700    397.18728     31.95859      2204118          147  0.007193656    21.683824    961.73205 
   55800    386.11368    32.478885      2204118          147  0.007193656    29.616099    943.45574 
   55900    398.75024     33.90989      2204118          147  0.007193656      35.0035    978.75088 
   56000    412.60814    35.788236      2204118          147  0.007193656    43.312102    1019.8579 
   56100    407.53213     35.82528      2204118          147  0.007193656    45.148901    1009.6809 
   56200    392.74458    34.501164      2204118          147  0.007193656    40.983817    970.51724 
   56300    391.53174    33.315846      2204118          147  0.007193656    33.081174    959.74407 
   56400      402.095    33.736706      2204118          147  0.007193656    32.698608    984.36225 
   56500    407.15646    34.730547      2204118          147  0.007193656    38.334521    1001.9774 
   56600    402.05244    34.617124      2204118          147  0.007193656    39.669496    991.23242 
   56700    396.62674    33.185117      2204118          147  0.007193656    30.940139     969.6617 
   56800    389.14954    34.738179      2204118          147  0.007193656    44.569544    965.59435 
   56900    402.45436    36.414363      2204118          147  0.007193656    51.305464    1003.8196 
   57000    413.95626    37.376643      2204118          147  0.007193656    53.685661    1033.4221 
   57100    402.04992    36.982599      2204118          147  0.007193656    54.589227    1006.1462 
   57200    386.83831    36.358039      2204118          147  0.007193656    54.971503    970.52617 
   57300    393.48691    36.832994      2204118          147  0.007193656    56.434916    987.72525 
   57400    414.91616    36.403689      2204118          147  0.007193656    46.223093    1028.2314 
   57500    410.32514    35.001627      2204118          147  0.007193656    38.131545     1009.274 
   57600     387.8736    33.277196      2204118          147  0.007193656    33.725623    951.73058 
   57700    381.80339    33.859091      2204118          147  0.007193656    39.977459    943.61567 
   57800    404.49334    36.721504      2204118          147  0.007193656    53.427167    1010.7671 
   57900     430.6651     35.56471      2204118          147  0.007193656    35.782456    1055.0648 
   58000    398.41242    33.669448      2204118          147  0.007193656    33.707093    976.65495 
   58100    369.38142    32.679095      2204118          147  0.007193656    36.833576    911.07192 
   58200    387.21034    34.920121      2204118          147  0.007193656    46.876378    963.31156 
   58300    430.55594    37.224409      2204118          147  0.007193656     48.11862    1067.1426 
   58400    424.29042    35.773396      2204118          147  0.007193656    38.761509    1042.9564 
   58500    365.67339    36.934571      2204118          147  0.007193656    67.790619    933.25293 
   58600    377.22128    36.153995      2204118          147  0.007193656    57.592909    950.38634 
   58700    427.55822    37.060458      2204118          147  0.007193656    46.860143    1058.7892 
   58800    426.59077    37.020111      2204118          147  0.007193656    47.345658     1056.985 
   58900    381.65763    34.486728      2204118          147  0.007193656    45.173756    948.46699 
   59000    374.11276     31.88298      2204118          147  0.007193656    28.814604    914.25092 
   59100    401.31343    33.996737      2204118          147  0.007193656    34.184444     983.9983 
   59200    420.27036    38.438524      2204118          147  0.007193656    58.624807    1053.3052 
   59300    408.71794    40.010723      2204118          147  0.007193656    72.786693    1040.1253 
   59400    387.27786    39.760472      2204118          147  0.007193656    78.734073    995.32906 
   59500    395.39759    37.204824      2204118          147  0.007193656    57.733911    993.54636 
   59600     410.8487    35.322718      2204118          147  0.007193656    39.729982    1012.1116 
   59700    404.97993    33.880396      2204118          147  0.007193656    31.985122     990.4767 
   59800    384.26474    34.179154      2204118          147  0.007193656    41.455985    950.91962 
   59900    391.42902    35.170061      2204118          147  0.007193656    45.815099     972.2349 
   60000    413.16947    37.015335      2204118          147  0.007193656    51.453721     1029.328 
   60100    413.65132    37.510561      2204118          147  0.007193656    55.120805    1034.1355 
   60200    393.55887    35.915763      2204118          147  0.007193656    50.519733    981.98037 
   60300    384.03626     35.08196      2204118          147  0.007193656    47.433302    956.35618 
   60400    401.62688    35.486283      2204118          147  0.007193656    43.836922    994.39262 
   60500     416.5802    35.987886      2204118          147  0.007193656    41.786509    1027.7332 
   60600    401.10735    35.933441      2204118          147  0.007193656    46.938255    996.26437 
   60700    384.85813    35.498947      2204118          147  0.007193656    49.735083    960.60314 
   60800    395.52171    35.321961      2204118          147  0.007193656     44.56859     980.6748 
   60900    408.14949    37.494082      2204118          147  0.007193656    56.336633    1022.3298 
   61000    413.09748    36.762154      2204118          147  0.007193656    49.268331    1026.9722 
   61100    395.87993    35.078721      2204118          147  0.007193656    43.555576    980.50961 
   61200    382.97812    34.851861      2204118          147  0.007193656    46.944621    953.36313 
   61300    398.82092    35.729827      2204118          147  0.007193656    48.005118    991.91979 
   61400    419.91095    35.678051      2204118          147  0.007193656    39.930029    1033.7598 
   61500    399.57053    36.884754      2204118          147  0.007193656    56.523463    1002.2123 
   61600    391.87017    34.018753      2204118          147  0.007193656    38.180915    965.64481 
   61700    393.63138    33.153912      2204118          147  0.007193656    31.468743    963.10101 
   61800    396.77045    35.890895      2204118          147  0.007193656    50.733685    989.79539 
   61900    411.35709    36.762234      2204118          147  0.007193656    51.747176     1025.332 
   62000    406.97558     36.88425      2204118          147  0.007193656    54.400539    1017.6154 
   62100    391.63926    35.880485      2204118          147  0.007193656    52.381947    979.29933 
   62200    388.96341     35.72603      2204118          147  0.007193656    52.008218     972.5925 
   62300    406.39084    35.997296      2204118          147  0.007193656    47.519005    1009.3499 
   62400    410.78399     36.74839      2204118          147  0.007193656    51.762484    1023.9909 
   62500    400.71574    35.042301      2204118          147  0.007193656    43.152639    991.55191 
   62600    388.94624    33.498322      2204118          147  0.007193656    37.031815    957.57546 
   62700    397.62718    31.859141      2204118          147  0.007193656    22.247475    963.33684 
   62800    398.41476    34.528595      2204118          147  0.007193656     41.90548    984.85887 
   62900    409.87825    34.547973      2204118          147  0.007193656    37.126371    1007.2111 
   63000    401.32542    35.275768      2204118          147  0.007193656     45.21624    995.05847 
   63100    394.44816      34.2453      2204118          147  0.007193656    39.098807     972.6642 
   63200    391.82564    35.617058      2204118          147  0.007193656    49.666642    977.02514 
   63300    406.38672     36.57253      2204118          147  0.007193656      50.7324    1012.5535 
   63400    408.09199    37.661617      2204118          147  0.007193656    57.153483    1023.0106 
   63500    395.37765    38.348364      2204118          147  0.007193656    66.050312    1001.8156 
   63600    397.07487    37.388842      2204118          147  0.007193656    57.722533    997.50472 
   63700    398.45736    38.443832      2204118          147  0.007193656    64.744319    1007.7985 
   63800    404.03019    38.809168      2204118          147  0.007193656    64.882948    1021.1267 
   63900     406.7309    37.734302      2204118          147  0.007193656    55.760591    1018.3963 
   64000    397.09925    36.662698      2204118          147  0.007193656    51.426267    991.26614 
   64100    393.76827    35.316025      2204118          147  0.007193656    42.721702    974.67794 
   64200    399.31133    34.981283      2204118          147  0.007193656    37.685271    982.76062 
   64300    399.46913    37.188663      2204118          147  0.007193656    52.875333    998.32417 
   64400    403.44585    38.415962      2204118          147  0.007193656    59.669528    1014.5303 
   64500    405.79715    37.715791      2204118          147  0.007193656    53.762378    1014.1881 
   64600    401.03731    35.594285      2204118          147  0.007193656    40.605412    989.76576 
   64700    387.15112    36.095907      2204118          147  0.007193656    50.231304    966.52632 
   64800    398.10053    36.283864      2204118          147  0.007193656    47.788345    989.99801 
   64900    413.22057    36.541294      2204118          147  0.007193656    44.249082    1022.2443 
   65000    402.71521    36.650644      2204118          147  0.007193656    48.347406    1001.4789 
   65100    386.91087    36.786913      2204118          147  0.007193656    54.548238    970.27465 
   65200    394.20433    37.356363      2204118          147  0.007193656    56.071455    989.05975 
   65300    412.77866     37.73847      2204118          147  0.007193656    52.766303    1029.7156 
   65400    411.25916    36.261986      2204118          147  0.007193656    43.131025    1016.4841 
   65500    385.86814    35.619116      2204118          147  0.007193656    48.570506      961.829 
   65600    390.44533    33.787054      2204118          147  0.007193656    33.984735    958.07637 
   65700    405.55584    34.680493      2204118          147  0.007193656    35.460673     995.3153 
   65800     407.4936    36.562965      2204118          147  0.007193656    48.596425    1013.0373 
   65900    403.47753     35.36089      2204118          147  0.007193656    40.554572    995.49034 
   66000     388.3942    36.030755      2204118          147  0.007193656    50.259271    969.49637 
   66100    394.35015    37.170269      2204118          147  0.007193656    55.931839    989.26526 
   66200    412.03993    37.906332      2204118          147  0.007193656    54.975902    1030.1768 
   66300    408.52985    37.759216      2204118          147  0.007193656    55.766197    1022.6596 
   66400     394.2777    35.485297      2204118          147  0.007193656     45.01208    978.17403 
   66500    387.59155    34.437413      2204118          147  0.007193656     40.72703    958.06443 
   66600     397.4972    35.573311      2204118          147  0.007193656    46.503338    987.28508 
   66700    413.61458    36.041678      2204118          147  0.007193656     44.32401    1023.2518 
   66800    403.55377     36.62893      2204118          147  0.007193656    52.296499    1007.4127 
   66900     389.6889    36.417765      2204118          147  0.007193656    55.890646    978.19199 
   67000    399.23652    34.874082      2204118          147  0.007193656    41.011768    985.91007 
   67100    403.40828    35.738137      2204118          147  0.007193656     46.11056    1000.8824 
   67200     403.3732    35.630553      2204118          147  0.007193656    45.119642    999.80847 
   67300    398.24774    35.325237      2204118          147  0.007193656    43.964222    986.52232 
   67400    390.87252     37.00088      2204118          147  0.007193656    58.387766    983.49046 
   67500    401.83756    38.209973      2204118          147  0.007193656    63.414547    1014.4689 
   67600     419.8237    35.808839      2204118          147  0.007193656    39.798438    1033.4217 
   67700    399.34211    33.531146      2204118          147  0.007193656    30.913346    976.06155 
   67800    380.36305    31.715937      2204118          147  0.007193656    24.110526    924.33978 
   67900    386.47926    33.915643      2204118          147  0.007193656    37.257838    951.96273 
   68000    417.35648    36.830973      2204118          147  0.007193656    46.108696    1033.8926 
   68100    416.63465     39.33787      2204118          147  0.007193656    63.775643    1049.8512 
   68200    391.29365    38.564063      2204118          147  0.007193656    66.864628    992.96402 
   68300    386.03394    36.495224      2204118          147  0.007193656    54.787658    968.43857 
   68400    407.21533    33.911016      2204118          147  0.007193656    29.446211    993.22845 
   68500    407.32956    33.785543      2204118          147  0.007193656    29.307759    993.36037 
   68600    390.97741    34.666439      2204118          147  0.007193656    41.751306    967.10224 
   68700    393.76155    34.921368      2204118          147  0.007193656    42.592894    974.53323 
   68800    409.73153    34.833347      2204118          147  0.007193656    36.502361    1006.2399 
   68900    408.32732    34.358954      2204118          147  0.007193656    33.901894     1000.316 
   69000    392.02971    33.701326      2204118          147  0.007193656     35.32234    963.16382 
   69100    389.36373    33.687723      2204118          147  0.007193656     36.40517    957.93691 
   69200     404.0603    34.570119      2204118          147  0.007193656    37.586818    993.90186 
   69300    408.10297    36.516288      2204118          147  0.007193656    50.428427    1016.3115 
   69400     401.8735    36.712038      2204118          147  0.007193656    54.477619     1005.617 
   69500    400.37757    33.732896      2204118          147  0.007193656    33.323287    980.92217 
   69600    390.92348    33.365611      2204118          147  0.007193656    34.864818    960.08812 
   69700    399.90873    32.580764      2204118          147  0.007193656    26.317328    972.80658 
   69800    405.95147    33.104685      2204118          147  0.007193656    28.383606    989.17461 
   69900    402.33626    32.855712      2204118          147  0.007193656     27.43122    979.66586 
   70000    390.05322    34.067145      2204118          147  0.007193656    40.699356    963.86296 
   70100    401.23936    33.429842      2204118          147  0.007193656    31.143764    980.78231 
   70200    404.10087    34.811472      2204118          147  0.007193656    39.745497    996.15655 
   70300    402.03742    34.987857      2204118          147  0.007193656    40.975803    992.50317 
   70400    396.90341    34.814996      2204118          147  0.007193656    41.156956    980.53333 
   70500    397.54702    34.467094      2204118          147  0.007193656    38.214999    979.11466 
   70600    400.12778    35.041737      2204118          147  0.007193656     41.98514    988.99284 
   70700    406.04736     34.35904      2204118          147  0.007193656    35.496516    996.51445 
   70800    400.11387    33.773596      2204118          147  0.007193656    34.262914    981.23769 
   70900    395.48274    32.498234      2204118          147  0.007193656     27.36563    963.37962 
   71000    397.41165    32.049401      2204118          147  0.007193656    24.143002    964.72226 
   71100    403.41054    31.996605      2204118          147  0.007193656    21.751832    976.52904 
   71200    399.19744    33.317674      2204118          147  0.007193656    32.410419    977.21622 
   71300    396.01888     34.79749      2204118          147  0.007193656    43.676697     980.9596 
   71400    403.05821    35.204139      2204118          147  0.007193656    43.535433    997.47876 
   71500    407.20245    34.687443      2204118          147  0.007193656    38.004561    1001.7563 
   71600    398.72689    33.736216      2204118          147  0.007193656    33.701019    977.39313 
   71700    384.68483    35.711451      2204118          147  0.007193656      53.3424     963.8003 
   71800    407.12143     35.09287      2204118          147  0.007193656    40.603194    1004.1632 
   71900    417.95482    33.874578      2204118          147  0.007193656    27.911018    1017.1111 
   72000    390.77946    33.879049      2204118          147  0.007193656    37.724259    962.60669 
   72100    382.86949    33.652048      2204118          147  0.007193656    38.196414    944.35782 
   72200    403.03067    35.096082      2204118          147  0.007193656    41.095948    994.97409 
   72300    419.26403    36.049269      2204118          147  0.007193656    41.853538    1034.1522 
   72400    401.28103     35.83879      2204118          147  0.007193656      46.8087    996.54588 
   72500    385.12341    34.255666      2204118          147  0.007193656    41.585433    953.08133 
   72600    398.00738    32.165299      2204118          147  0.007193656    22.139649    964.12886 
   72700    402.33734    34.563494      2204118          147  0.007193656    39.252082    991.48929 
   72800    407.80166    34.444189      2204118          147  0.007193656    36.618206    1001.7882 
   72900     400.6073    33.266414      2204118          147  0.007193656    30.724869    978.86747 
   73000    389.74152    33.184513      2204118          147  0.007193656    34.389768    956.81564 
   73100    399.69805    32.694749      2204118          147  0.007193656    27.312478     973.3031 
   73200    408.81374    32.813988      2204118          147  0.007193656    24.452599    992.01791 
   73300    397.35141    34.231184      2204118          147  0.007193656    37.807308      978.244 
   73400    389.68342    35.936728      2204118          147  0.007193656    51.860065    974.14843 
   73500    404.30518    36.739951      2204118          147  0.007193656    51.962023    1008.8566 
   73600    411.80448    37.458835      2204118          147  0.007193656    54.899579    1029.5433 
   73700    398.09657    37.509881      2204118          147  0.007193656    61.392942    1003.5933 
   73800    396.99461    34.027679      2204118          147  0.007193656    36.991966    976.58418 
   73900    396.73645    32.038605      2204118          147  0.007193656     22.79879    961.78002 
   74000    390.72694    34.305926      2204118          147  0.007193656    41.453187    966.21133 
   74100    403.72944    36.570362      2204118          147  0.007193656    53.420633    1008.9526 
   74200    417.72353     36.27609      2204118          147  0.007193656    46.894668    1035.5473 
   74300    402.59744    33.785235      2204118          147  0.007193656    34.587241    987.44005 
   74400    380.04906    32.616071      2204118          147  0.007193656    34.283986    933.77011 
   74500     387.8175    33.827151      2204118          147  0.007193656    40.008455    957.88063 
   74600    414.58893    36.574352      2204118          147  0.007193656    49.966136    1031.1999 
   74700    418.44137    37.666293      2204118          147  0.007193656    56.015007    1046.3666 
   74800    394.12209    36.284033      2204118          147  0.007193656    54.257303    987.05096 
   74900    384.02922    34.548539      2204118          147  0.007193656    45.195724    954.10195 
   75000    402.41694    33.414437      2204118          147  0.007193656    30.193142    982.61875 
   75100    408.76979    34.689148      2204118          147  0.007193656    36.724482    1004.1858 
   75200    396.64668    36.386879      2204118          147  0.007193656     52.97312    991.74187 
   75300    397.76141     35.74462      2204118          147  0.007193656    47.796518    989.20359 
   75400    402.23388    35.400595      2204118          147  0.007193656    44.649178    996.64152 
   75500    403.62709     34.18585      2204118          147  0.007193656     35.98341    991.27315 
   75600    396.55918    33.644602      2204118          147  0.007193656    35.427932     973.9896 
   75700    399.66149    31.862563      2204118          147  0.007193656     21.38982    967.29391 
   75800    396.56766    32.489955      2204118          147  0.007193656    26.913227    965.49495 
   75900    397.52131    33.950517      2204118          147  0.007193656    36.349874    977.18868 
[...]
  381700    393.09495    34.037086      2204118          147  0.007193656    37.754046     968.1167 
  381800    403.76079    34.356335      2204118          147  0.007193656    35.305481    990.91164 
  381900    397.28973    36.036409      2204118          147  0.007193656     49.21887    989.50958 
  382000    400.65304    36.499175      2204118          147  0.007193656    50.538698    998.78957 
  382100    405.32523    37.576008      2204118          147  0.007193656    56.808983    1016.1178 
  382200    408.02869    37.093496      2204118          147  0.007193656    52.372963    1018.0802 
  382300    389.76624    35.615382      2204118          147  0.007193656    48.325347    970.80974 
  382400    384.92123    34.375041      2204118          147  0.007193656    40.877434    951.89483 
  382500    405.06172     36.65379      2204118          147  0.007193656    50.189282    1008.8744 
  382600    414.33574    38.121175      2204118          147  0.007193656    57.445349    1038.0799 
  382700    403.47469    37.082053      2204118          147  0.007193656    53.177453    1008.1065 
  382800    394.26615    36.736025      2204118          147  0.007193656    53.624976    986.75958 
  382900    398.47265    36.480248      2204118          147  0.007193656    49.837901     992.9283 
  383000    413.79285    37.952179      2204118          147  0.007193656    55.187646    1034.5373 
  383100    429.04808    38.775992      2204118          147  0.007193656     56.19777     1071.653 
  383200    400.10662    36.739376      2204118          147  0.007193656    52.268935    999.22656 
  383300    395.33652    35.252492      2204118          147  0.007193656    43.945525    979.61344 
  383400    400.89784    34.574337      2204118          147  0.007193656    37.651055    986.48131 
  383500    401.33597    36.182243      2204118          147  0.007193656    50.230903    1000.0981 
  383600    415.48289    35.601111      2204118          147  0.007193656    41.395631    1024.7452 
  383700    407.31655    33.660073      2204118          147  0.007193656    30.269957    994.29176 
  383800     380.9185    34.013631      2204118          147  0.007193656    42.393841    943.93773 
  383900    396.72297    33.852832      2204118          147  0.007193656    35.265632    974.21494 
  384000    403.57883    36.294341      2204118          147  0.007193656    51.153659    1006.3292 
  384100    406.65131    35.726391      2204118          147  0.007193656     46.36975    1008.8171 
  384200      405.079    33.688062      2204118          147  0.007193656    33.045938    991.77199 
  384300    403.49269    31.641932      2204118          147  0.007193656    18.862752    973.83439 
  384400     393.4118    33.221725      2204118          147  0.007193656    33.553629    964.66618 
  384500    394.87697    35.920652      2204118          147  0.007193656    52.145416     986.7257 
  384600    416.83495    35.752769      2204118          147  0.007193656    41.817583    1028.3672 
  384700    399.98079    36.178939      2204118          147  0.007193656    50.446361    997.10616 
  384800    374.12802    33.809339      2204118          147  0.007193656    41.562781    927.03519 
  384900    387.26399    35.108822      2204118          147  0.007193656    46.766065    963.32822 
  385000    410.77815    34.639582      2204118          147  0.007193656    35.633286    1007.8479 
  385100    408.97012    33.405254      2204118          147  0.007193656    28.073977    996.00939 
  385200    390.45865    31.753576      2204118          147  0.007193656    22.305503    946.42866 
  385300    381.40626    34.646714      2204118          147  0.007193656    46.190995    948.88928 
  385400    394.71413     36.72849      2204118          147  0.007193656    56.786965    990.98184 
  385500    409.26578    34.121352      2204118          147  0.007193656    32.625229    1001.2604 
  385600    397.78461    33.589448      2204118          147  0.007193656    33.610561    975.07254 
  385700    389.53215    31.940786      2204118          147  0.007193656    24.531236    946.46159 
  385800    394.38148    32.454987      2204118          147  0.007193656    26.380922    959.78849 
  385900      418.431    34.842125      2204118          147  0.007193656    34.373055    1024.7001 
  386000     407.2711    35.475153      2204118          147  0.007193656    42.191765     1006.106 
  386100     393.6228     33.81132      2204118          147  0.007193656    34.424386    966.03632 
  386200    392.50063    34.075296      2204118          147  0.007193656     36.75573    965.71177 
  386300     399.4764    34.366942      2204118          147  0.007193656    36.437035    981.90307 
  386400    404.68399    33.892676      2204118          147  0.007193656    31.092668    988.88384 
  386500    393.80924    35.419435      2204118          147  0.007193656    46.199853    978.25307 
  386600    393.10464    36.710848      2204118          147  0.007193656    56.246291    986.63188 
  386700    421.35425    36.096828      2204118          147  0.007193656    42.062861    1039.3086 
  386800     408.3088    34.831944      2204118          147  0.007193656    38.232598    1004.6028 
  386900    391.33217    33.097438      2204118          147  0.007193656    31.922523     958.1131 
  387000    391.53394    34.085045      2204118          147  0.007193656    39.341489     966.0096 
  387100    406.86764    35.405193      2204118          147  0.007193656    43.893519    1006.8529 
  387200    414.20306    34.757418      2204118          147  0.007193656    37.097181    1017.4177 
  387300     378.6117     32.63457      2204118          147  0.007193656    34.293743    930.37796 
  387400    377.59237    33.772488      2204118          147  0.007193656     43.18391    936.85563 
  387500    404.67288    34.437437      2204118          147  0.007193656    38.647472    996.41235 
  387600     414.1145     33.70731      2204118          147  0.007193656    29.976227    1010.0872 
  387700    390.54661    34.209545      2204118          147  0.007193656    41.389053     965.7204 
  387800    379.86387     36.58618      2204118          147  0.007193656    61.851665    960.89949 
  387900    411.16132    36.595351      2204118          147  0.007193656    50.019677    1023.1412 
  388000    408.79655    36.292614      2204118          147  0.007193656    49.196362     1016.721 
  388100    397.91438    34.453856      2204118          147  0.007193656    40.002442    981.77155 
  388200    390.56624    33.721233      2204118          147  0.007193656    38.059534    962.43734 
  388300    405.36908     33.51187      2204118          147  0.007193656    31.848852    991.26147 
  388400    429.74341    34.055071      2204118          147  0.007193656    27.015125     1044.116 
  388500     396.5715    34.690345      2204118          147  0.007193656    43.108254    981.69908 
  388600    388.34939    34.762736      2204118          147  0.007193656    45.892535    965.02358 
  388700    401.06733    35.410942      2204118          147  0.007193656    46.352242    995.58363 
  388800    413.35213    34.335639      2204118          147  0.007193656    34.786394     1013.093 
  388900    393.73471    32.950112      2204118          147  0.007193656    32.595048    964.47187 
  389000    381.71939    30.969515      2204118          147  0.007193656    22.160075    925.59948 
  389100    387.63921    33.054124      2204118          147  0.007193656    34.877558    952.32776 
  389200    399.17478    34.085768      2204118          147  0.007193656    37.053815    981.80599 
  389300    402.54262    36.386693      2204118          147  0.007193656    52.318701    1005.0417 
  389400    408.37469    36.488734      2204118          147  0.007193656    50.732091    1017.2583 
  389500    395.38702    35.328716      2204118          147  0.007193656    47.257583    983.04501 
  389600    383.40378    32.411894      2204118          147  0.007193656    29.634572    937.06052 
  389700     389.8241     34.77448      2204118          147  0.007193656    44.207817    966.82915 
  389800    404.29536    38.255614      2204118          147  0.007193656    64.525281    1021.3967 
  389900    403.80535    38.325078      2204118          147  0.007193656    65.539696    1021.2513 
  390000    402.33156    36.058136      2204118          147  0.007193656     50.45872    1002.6822 
  390100    389.97633    33.373007      2204118          147  0.007193656    36.199373    959.18099 
  390200    376.27096    33.383524      2204118          147  0.007193656    42.332843     932.8771 
  390300    418.88415     32.77471      2204118          147  0.007193656    22.542089    1013.9417 
  390400    408.37131    34.629392      2204118          147  0.007193656    39.309028    1005.8272 
  390500    389.46012    35.810264      2204118          147  0.007193656    53.738747    975.49863 
  390600    401.41261    34.196173      2204118          147  0.007193656    36.420937    986.46952 
  390700     412.3173    36.708498      2204118          147  0.007193656    50.373155    1026.2306 
  390800     416.9101    40.234918      2204118          147  0.007193656    73.810011    1060.5375 
  390900    403.27198    37.890657      2204118          147  0.007193656    60.781698     1015.231 
  391000    386.06892    36.152278      2204118          147  0.007193656     54.93498    968.66867 
  391100    399.31024    34.983654      2204118          147  0.007193656    42.540966    987.61373 
  391200    409.77806    34.643428      2204118          147  0.007193656    36.936771    1006.7844 
  391300    393.03178    34.626782      2204118          147  0.007193656     43.26675    973.47988 
  391400    371.82086    33.267349      2204118          147  0.007193656    41.002922    921.01485 
  391500    392.60037    34.586528      2204118          147  0.007193656    43.046731    972.23883 
  391600    400.76077    36.954309      2204118          147  0.007193656    57.519463    1006.0253 
  391700    403.48426    37.547635      2204118          147  0.007193656    61.104604    1016.0563 
  391800    402.57324    36.012705      2204118          147  0.007193656    50.489036    1003.2845 
  391900    381.81084    34.254436      2204118          147  0.007193656    45.165846     948.8217 
  392000    383.39108    34.536535      2204118          147  0.007193656    47.464307    954.86019 
  392100     415.3309     33.71866      2204118          147  0.007193656    29.842052    1012.8319 
  392200     399.7817    35.846599      2204118          147  0.007193656    51.277469    997.46609 
  392300    395.20389    35.617263      2204118          147  0.007193656    51.438654    986.79266 
  392400    404.87174    34.646556      2204118          147  0.007193656    42.058164    1000.2937 
  392500    418.81533    32.932867      2204118          147  0.007193656    25.702214    1016.9389 
  392600    395.33944    31.171209      2204118          147  0.007193656    21.832925    957.50775 
  392700    381.09848    31.998224      2204118          147  0.007193656    32.815617    934.78546 
  392800    400.15806    33.688482      2204118          147  0.007193656    37.366449     984.4458 
  392900    406.40643    35.065821      2204118          147  0.007193656    44.725515    1006.5933 
  393000    400.51572    34.995348      2204118          147  0.007193656    46.195286    994.12114 
  393100    396.29609    33.508628      2204118          147  0.007193656    37.331762    975.27076 
  393200    387.64124    30.306626      2204118          147  0.007193656    16.920964    934.37598 
  393300    370.71585    31.362988      2204118          147  0.007193656    30.293636    907.69027 
  393400      393.117    35.097224      2204118          147  0.007193656    48.584458    978.99931 
  393500    403.25034    36.985648      2204118          147  0.007193656    58.224611    1012.6227 
  393600    410.20497     35.81418      2204118          147  0.007193656    47.110102    1017.9681 
  393700    395.90617    33.742492      2204118          147  0.007193656    37.553679    974.56984 
  393800    384.56339    32.671827      2204118          147  0.007193656    34.459788    944.63027 
  393900    406.31838    32.002726      2204118          147  0.007193656    21.698621    983.35799 
  394000    418.74358    35.988159      2204118          147  0.007193656    46.236598    1037.3035 
  394100    400.55709    35.783771      2204118          147  0.007193656    50.028718     998.0525 
  394200    375.24618    35.361648      2204118          147  0.007193656    55.480988    943.59982 
  394300    400.74122    35.270319      2204118          147  0.007193656    45.095761    993.55532 
  394400    414.87112     35.13723      2204118          147  0.007193656     38.98153    1020.8832 
  394500    400.03979    33.983427      2204118          147  0.007193656    35.772898    982.57235 
  394600    386.53318    33.520735      2204118          147  0.007193656     37.19731     952.0298 
  394700    396.35458    34.147992      2204118          147  0.007193656    37.864374    975.94181 
  394800    399.67496    35.907712      2204118          147  0.007193656     49.11636    995.05233 
  394900    401.36536    36.049214      2204118          147  0.007193656    49.003728    998.94047 
  395000     404.1146    34.605403      2204118          147  0.007193656    37.207558    993.65111 
  395100    388.22269    34.601037      2204118          147  0.007193656    42.792849    961.62401 
  395200    380.90395    35.368563      2204118          147  0.007193656    51.145849    952.65529 
  395300    414.47614    36.090347      2204118          147  0.007193656    44.603833    1025.5707 
  395400    411.88052    35.951134      2204118          147  0.007193656    44.024391     1018.848 
  395500    391.58182    36.547783      2204118          147  0.007193656    55.166322    981.94775 
  395600    396.76529    35.310949      2204118          147  0.007193656    43.583812     982.6333 
  395700    410.50193    36.207609      2204118          147  0.007193656    45.148437    1016.7093 
  395800    430.94168    37.750506      2204118          147  0.007193656    48.920736    1068.8576 
  395900    399.72881    37.704591      2204118          147  0.007193656    59.911568     1005.975 
  396000     395.4476    35.791669      2204118          147  0.007193656    47.482191    983.41301 
  396100    397.03577    36.278326      2204118          147  0.007193656     51.01259    990.70223 
  396200    408.61693    36.843661      2204118          147  0.007193656    51.555333    1018.6548 
  396300     423.4811    36.262448      2204118          147  0.007193656    42.122677    1044.4022 
  396400    386.15895    37.169569      2204118          147  0.007193656    62.456853    976.40364 
  396500    389.79914    35.641791      2204118          147  0.007193656    50.272302    972.83455 
  396600    410.29308    34.685845      2204118          147  0.007193656    36.454438     1007.521 
  396700    402.61008    35.807442      2204118          147  0.007193656    47.825152    1000.7079 
  396800    376.49398    34.809107      2204118          147  0.007193656    50.416149    941.48824 
  396900    377.33537     33.29216      2204118          147  0.007193656    40.012479    933.07595 
  397000    410.29369    33.461687      2204118          147  0.007193656    30.094052     1001.162 
  397100    406.22457    33.716482      2204118          147  0.007193656    34.132932    995.57029 
  397200    395.77818    32.200157      2204118          147  0.007193656    26.707632    963.42085 
  397300    386.05613    32.855628      2204118          147  0.007193656      35.1461    948.84954 
  397400    413.09156    33.840058      2204118          147  0.007193656    32.544395    1010.2343 
  397500    418.73767     34.60882      2204118          147  0.007193656     35.31839    1026.3713 
  397600    396.83463    35.877608      2204118          147  0.007193656    51.912787    991.12639 
  397700    396.11826    35.606013      2204118          147  0.007193656    50.226709    987.74482 
  397800    403.93407     34.59017      2204118          147  0.007193656    39.978829    995.99511 
  397900    401.38006    33.799478      2204118          147  0.007193656    34.737347     984.7089 
  398000    376.15995    34.523543      2204118          147  0.007193656    49.091003    939.37252 
  398100    395.50294    34.069439      2204118          147  0.007193656    37.914481    973.97628 
  398200    407.09213    36.916107      2204118          147  0.007193656    54.262311     1017.753 
  398300    403.78431    37.350956      2204118          147  0.007193656    57.847926    1013.5098 
  398400    396.41941    35.599295      2204118          147  0.007193656    47.554864    985.78572 
  398500    376.41098    32.915966      2204118          147  0.007193656    35.726991    926.60264 
  398600    382.03773    30.734735      2204118          147  0.007193656     17.91287    922.10569 
  398700    406.76489    34.400953      2204118          147  0.007193656    36.224837    998.94101 
  398800    408.45136    34.532029      2204118          147  0.007193656    36.037482    1002.7451 
  398900    390.53218    35.481613      2204118          147  0.007193656    49.477665    973.77485 
  399000    394.86994    33.947098      2204118          147  0.007193656    35.911607    970.47523 
  399100    412.29932    36.242824      2204118          147  0.007193656     46.66078    1022.4756 
  399200     420.9908    37.129918      2204118          147  0.007193656    49.908885    1046.2944 
  399300    392.25663    36.345714      2204118          147  0.007193656    54.812856    983.19141 
  399400    394.18006    35.003965      2204118          147  0.007193656    45.239449    978.17031 
  399500    405.74535    33.586605      2204118          147  0.007193656    31.493412    991.79657 
  399600    397.20232    34.558869      2204118          147  0.007193656    42.144803    982.22864 
  399700    389.11397    33.914802      2204118          147  0.007193656    40.176396    961.11702 
  399800    392.61003    34.608794      2204118          147  0.007193656    44.018526    973.23348 
  399900    412.35405    36.431954      2204118          147  0.007193656    50.279875    1026.2243 
  400000    411.40469    36.182157      2204118          147  0.007193656    48.788677    1022.4862 
  400100    390.48525    34.792012      2204118          147  0.007193656    46.551337    970.73745 
Loop time of 24.7479 on 1 procs for 400000 steps with 795 atoms

Performance: 349.121 ns/day, 0.069 hours/ns, 16162.989 timesteps/s
96.6% CPU use with 1 MPI tasks x no OpenMP threads

MPI task timing breakdown:
Section |  min time  |  avg time  |  max time  |%varavg| %total
---------------------------------------------------------------
Pair    | 11.877     | 11.877     | 11.877     |   0.0 | 47.99
Neigh   | 3.321      | 3.321      | 3.321      |   0.0 | 13.42
Comm    | 0.89018    | 0.89018    | 0.89018    |   0.0 |  3.60
Output  | 1.6747     | 1.6747     | 1.6747     |   0.0 |  6.77
Modify  | 6.3289     | 6.3289     | 6.3289     |   0.0 | 25.57
Other   |            | 0.6558     |            |       |  2.65

Nlocal:            795 ave         795 max         795 min
Histogram: 1 0 0 0 0 0 0 0 0 0
Nghost:            136 ave         136 max         136 min
Histogram: 1 0 0 0 0 0 0 0 0 0
Neighs:           1607 ave        1607 max        1607 min
Histogram: 1 0 0 0 0 0 0 0 0 0

Total # of neighbors = 1607
Ave neighs/atom = 2.0213836
Neighbor list builds = 10523
Dangerous builds = 13

write_data graphene_single_layer_LJ_795C_after_temp_400K.data
System init for write_data ...
  generated 0 of 0 mixed pair_coeff terms from geometric mixing rule
Total wall time: 0:00:24
