# System definition
read_data graphene_single_layer_x-45_y-45_795_C.data
Reading data file ...
  orthogonal box = (-51 -51 -51) to (96 96 51)
  1 by 1 by 1 MPI processor grid
  reading atoms ...
  795 atoms
  read_data CPU = 0.012 seconds
pair_style lj/cut 6
pair_coeff      1 1 0.066047 3.4

# Virtual force wall to keep the cylinder shape
#region myCylinder cylinder z 0. 0. 20.3 -22.079997 505.920003 units box
#fix wall all wall/region myCylinder lj93 1.0 1.0 2.5

# Minimization
timestep 0.25
thermo 100
thermo_style custom step temp press vol lx density pe etotal
dump 2 all custom 1000 graphene_single_layer_LJ_795C_after_temp_200K.lammpstrj id type x y z
min_style cg
minimize 1.0e-6 1.0e-6 100 1000
WARNING: Using 'neigh_modify every 1 delay 0 check yes' setting during minimization (../min.cpp:187)
  generated 0 of 0 mixed pair_coeff terms from geometric mixing rule
Neighbor list info ...
  update every 1 steps, delay 0 steps, check yes
  max neighbors/atom: 10000, page size: 100000
  master list distance cutoff = 6.4
  ghost atom cutoff = 6.4
  binsize = 3.2, bins = 46 46 32
  1 neighbor lists, perpetual/occasional/extra = 1 0 0
  (1) pair lj/cut, perpetual
      attributes: half, newton on
      pair build: half/bin/atomonly/newton
      stencil: half/bin/3d
      bin: standard
Per MPI rank memory allocation (min/avg/max) = 5.96 | 5.96 | 5.96 Mbytes
Step Temp Press Volume Lx Density PotEng TotEng 
       0            0    1335313.5      2204118          147  0.007193656     10699602     10699602 
     100            0     61841.43      2204118          147  0.007193656    488621.59    488621.59 
Loop time of 0.05984 on 1 procs for 100 steps with 795 atoms

100.0% CPU use with 1 MPI tasks x no OpenMP threads

Minimization stats:
  Stopping criterion = max iterations
  Energy initial, next-to-last, final = 
      10699602.3573369   495470.853828546   488621.590421788
  Force two-norm initial, final = 694694.42 29375.63
  Force max component initial, final = 79169.705 9280.0147
  Final line search alpha, max atom move = 3.8811533e-05 0.36017159
  Iterations, force evaluations = 100 117

MPI task timing breakdown:
Section |  min time  |  avg time  |  max time  |%varavg| %total
---------------------------------------------------------------
Pair    | 0.038887   | 0.038887   | 0.038887   |   0.0 | 64.98
Neigh   | 0.017239   | 0.017239   | 0.017239   |   0.0 | 28.81
Comm    | 0.0003404  | 0.0003404  | 0.0003404  |   0.0 |  0.57
Output  | 7.83e-05   | 7.83e-05   | 7.83e-05   |   0.0 |  0.13
Modify  | 0          | 0          | 0          |   0.0 |  0.00
Other   |            | 0.003296   |            |       |  5.51

Nlocal:            795 ave         795 max         795 min
Histogram: 1 0 0 0 0 0 0 0 0 0
Nghost:              0 ave           0 max           0 min
Histogram: 1 0 0 0 0 0 0 0 0 0
Neighs:          13073 ave       13073 max       13073 min
Histogram: 1 0 0 0 0 0 0 0 0 0

Total # of neighbors = 13073
Ave neighs/atom = 16.444025
Neighbor list builds = 35
Dangerous builds = 0
#timestep 0.25
fix 1 all nvt temp 200.0 200.0 $(100.0*dt)
fix 1 all nvt temp 200.0 200.0 25
run 400000
  generated 0 of 0 mixed pair_coeff terms from geometric mixing rule
Per MPI rank memory allocation (min/avg/max) = 4.835 | 4.835 | 4.835 Mbytes
Step Temp Press Volume Lx Density PotEng TotEng 
     100            0     61841.43      2204118          147  0.007193656    488621.59    488621.59 
     200    11677.032    26353.164      2204118          147  0.007193656       201632    229268.77 
     300     4807.003    15284.455      2204118          147  0.007193656    116659.63    128036.67 
     400    2838.0917    10491.852      2204118          147  0.007193656    79623.705    86340.796 
     500    1885.9781    7877.1856      2204118          147  0.007193656    59446.179    63909.842 
     600    1385.6644    6230.7974      2204118          147  0.007193656     46745.72     50025.26 
     700    1074.0724    5098.7338      2204118          147  0.007193656    38027.673    40569.748 
     800    864.79577    4276.9116      2204118          147  0.007193656    31710.894    33757.661 
     900    717.53493    3655.0375      2204118          147  0.007193656    26940.518    28638.754 
    1000    609.33794    3169.2969      2204118          147  0.007193656    23221.843    24664.002 
    1100    527.33173    2780.4651      2204118          147  0.007193656    20251.247    21499.316 
    1200    463.80531    2462.8189      2204118          147  0.007193656    17829.604    18927.321 
    1300    413.69724    2198.8335      2204118          147  0.007193656    15821.334    16800.457 
    1400    373.55045    1976.2438      2204118          147  0.007193656    14131.619    15015.724 
    1500    340.95594    1786.2614      2204118          147  0.007193656    12692.591    13499.553 
    1600    314.32659    1622.3671      2204118          147  0.007193656    11453.868    12197.805 
    1700    292.54716    1479.5547      2204118          147  0.007193656    10376.789    11069.179 
    1800    274.65807     1353.987      2204118          147  0.007193656    9431.8214    10081.872 
    1900    259.90534    1242.7069      2204118          147  0.007193656    8596.1801    9211.3145 
    2000    247.70682    1143.4251      2204118          147  0.007193656     7852.309    8438.5724 
    2100    237.56956    1054.3512      2204118          147  0.007193656    7186.3888    7748.6597 
    2200     229.1711     974.0867      2204118          147  0.007193656     6587.805    7130.1987 
    2300    222.27515    901.46992      2204118          147  0.007193656    6047.5842    6573.6568 
    2400     216.7188    835.51562      2204118          147  0.007193656    5558.1304    6071.0525 
    2500    212.33827    775.38117      2204118          147  0.007193656    5113.0502    5615.6046 
    2600    208.97948    720.32296      2204118          147  0.007193656    4706.6276    5201.2326 
    2700    206.41413    669.71481      2204118          147  0.007193656     4334.088    4822.6214 
    2800    204.36331    623.08205      2204118          147  0.007193656    3991.8923    4475.5719 
    2900    202.72603    580.03638      2204118          147  0.007193656    3677.0138    4156.8183 
    3000    201.50272    540.23736      2204118          147  0.007193656      3386.81    3863.7192 
    3100    200.61701    503.38516      2204118          147  0.007193656    3119.0093    3593.8222 
    3200    199.95266    469.21748      2204118          147  0.007193656    2871.6111    3344.8517 
    3300    199.44135    437.52477      2204118          147  0.007193656    2643.1376     3115.168 
    3400    199.06899    408.08397      2204118          147  0.007193656    2431.6294    2902.7786 
    3500    198.82465    380.73656      2204118          147  0.007193656    2236.0477    2706.6186 
    3600    198.67562    355.30756      2204118          147  0.007193656    2054.9573    2525.1755 
    3700    198.58123    331.64205      2204118          147  0.007193656    1887.1263     2357.121 
    3800    198.52549     309.6176      2204118          147  0.007193656    1731.7208    2201.5837 
    3900    198.50981     289.1194      2204118          147  0.007193656    1587.9174    2057.7431 
    4000    198.52733    270.02497      2204118          147  0.007193656    1454.6774    1924.5446 
    4100    198.55989    252.22787      2204118          147  0.007193656    1331.1465    1801.0907 
    4200    198.59853    235.64786      2204118          147  0.007193656    1216.8184    1686.8541 
    4300    198.64641    220.18622      2204118          147  0.007193656    1110.8058    1580.9548 
    4400    198.70684    205.76736      2204118          147  0.007193656    1012.5489    1482.8409 
    4500    198.77081    192.31427      2204118          147  0.007193656    921.41494    1391.8584 
    4600    198.82656    179.76134      2204118          147  0.007193656    836.89669    1307.4721 
    4700     198.8708    168.05846      2204118          147  0.007193656    758.66169    1229.3418 
    4800    198.90698    157.15086      2204118          147  0.007193656    686.22044    1156.9862 
    4900    198.94758    146.99633      2204118          147  0.007193656    619.24846    1090.1103 
    5000    199.01065    137.55262      2204118          147  0.007193656    557.44541    1028.4565 
    5100    199.11983    128.75835      2204118          147  0.007193656    500.32175    971.59124 
    5200    199.28031    120.53545      2204118          147  0.007193656    447.30543    918.95474 
    5300    199.35275    112.81916      2204118          147  0.007193656    397.90966     869.7304 
    5400    199.28157    105.59626      2204118          147  0.007193656    352.15809    823.81038 
    5500    199.24908    98.846326      2204118          147  0.007193656    309.77586    781.35124 
    5600    199.36138    92.545006      2204118          147  0.007193656    270.50292     742.3441 
    5700    199.48928    86.666116      2204118          147  0.007193656    234.25405    706.39794 
    5800    199.48991    81.172934      2204118          147  0.007193656    200.77681    672.92218 
    5900    199.44064    76.049458      2204118          147  0.007193656    169.99451    642.02328 
    6000    199.49476     71.26354      2204118          147  0.007193656    141.50939    613.66624 
    6100     199.6201    66.793965      2204118          147  0.007193656    115.22767    587.68117 
    6200    199.65973    62.612826      2204118          147  0.007193656     91.00395    563.55125 
    6300    199.59961    58.706215      2204118          147  0.007193656    68.777006    541.18201 
    6400    199.58663    55.053992      2204118          147  0.007193656    48.250651    520.62493 
    6500    199.68396    51.648969      2204118          147  0.007193656    29.414798    502.01944 
    6600     199.7657    48.477536      2204118          147  0.007193656    12.283295    485.08139 
    6700    199.73225     45.51367      2204118          147  0.007193656   -3.3796282     469.3393 
    6800    199.67606    42.737452      2204118          147  0.007193656   -17.863664    454.72228 
    6900     199.7249     40.16466      2204118          147  0.007193656   -30.885411    441.81612 
    7000    199.82794    37.767148      2204118          147  0.007193656   -42.750989    430.19442 
    7100    199.84132    35.521522      2204118          147  0.007193656   -53.626954    419.35011 
    7200    199.77162    33.430645      2204118          147  0.007193656   -63.377501    409.43461 
    7300    199.76263    31.480891      2204118          147  0.007193656   -72.253858    400.53698 
    7400    199.85171    29.671138      2204118          147  0.007193656   -80.212677    392.78899 
    7500    199.90999    27.977271      2204118          147  0.007193656   -87.466893    385.67272 
    7600    199.86061    26.388805      2204118          147  0.007193656   -94.056235    378.96649 
    7700    199.80619    24.906054      2204118          147  0.007193656   -99.989879    372.90407 
    7800    199.85605    23.521445      2204118          147  0.007193656   -105.41195    367.59998 
    7900    199.94149    22.230001      2204118          147  0.007193656   -110.28314    362.93101 
    8000    199.93181    21.009648      2204118          147  0.007193656   -114.80878    358.38246 
    8100    199.85676    19.862402      2204118          147  0.007193656   -118.93112    354.08251 
    8200     199.8552    18.791584      2204118          147  0.007193656   -122.65908    350.35085 
    8300    199.94141    17.792828      2204118          147  0.007193656   -126.02723    347.18674 
    8400    199.98052    16.859131      2204118          147  0.007193656   -128.99724    344.30928 
    8500    199.91777    15.985206      2204118          147  0.007193656   -131.57389    341.58414 
    8600    199.86899    15.168813      2204118          147  0.007193656   -133.85188    339.19069 
    8700    199.92553    14.415167      2204118          147  0.007193656   -135.78122    337.39517 
    8800    200.00025    13.710875      2204118          147  0.007193656   -137.47842     335.8748 
    8900    199.97498     13.05415      2204118          147  0.007193656   -138.84667    334.44674 
    9000    199.90027    12.437383      2204118          147  0.007193656   -140.02596    333.09065 
    9100    199.90884    11.867756      2204118          147  0.007193656   -140.97571    332.16116 
    9200    199.99266    11.341497      2204118          147  0.007193656   -141.72266     331.6126 
    9300    200.01661    10.850371      2204118          147  0.007193656   -142.26746    331.12449 
    9400    199.94623    10.391339      2204118          147  0.007193656   -142.60973    330.61566 
    9500    199.90556    9.9652083      2204118          147  0.007193656   -142.81474    330.31437 
    9600    199.96837    9.5758789      2204118          147  0.007193656   -142.85469    330.42309 
    9700    200.03355    9.2162909      2204118          147  0.007193656   -142.74305    330.68899 
    9800    199.99527     8.879432      2204118          147  0.007193656   -142.49152    330.84994 
    9900    199.92246    8.5658611      2204118          147  0.007193656   -142.12925    331.03988 
   10000    199.94204    8.2794797      2204118          147  0.007193656   -141.67584    331.53962 
   10100    200.02495     8.018612      2204118          147  0.007193656   -141.11668    332.29499 
   10200    200.03485    7.7755339      2204118          147  0.007193656   -140.45339    332.98172 
   10300    199.95794    7.5457866      2204118          147  0.007193656   -139.73686    333.51623 
   10400    199.92612    7.3363838      2204118          147  0.007193656   -138.94759    334.23019 
   10500    199.99528    7.1491381      2204118          147  0.007193656   -138.09131    335.25016 
   10600    200.05078    6.9786108      2204118          147  0.007193656   -137.15655    336.31627 
   10700    200.00042    6.8170266      2204118          147  0.007193656   -136.19017    337.16347 
   10800    199.93097    6.6703793      2204118          147  0.007193656   -135.15519    338.03408 
   10900    199.96181    6.5430623      2204118          147  0.007193656   -134.06579    339.19645 
   11000    200.04332    6.4295509      2204118          147  0.007193656   -132.96207    340.49309 
   11100    200.03996    6.3252408      2204118          147  0.007193656   -131.79914    341.64808 
   11200    199.95946    6.2269998      2204118          147  0.007193656    -130.6257    342.63098 
   11300    199.93929    6.1422837      2204118          147  0.007193656   -129.42087    343.78809 
   11400     200.0151    6.0716217      2204118          147  0.007193656   -128.19696    345.19143 
   11500    200.06006    6.0067317      2204118          147  0.007193656   -126.98219    346.51259 
   11600    199.99884     5.946573      2204118          147  0.007193656   -125.72807    347.62184 
   11700    199.93546    5.8933229      2204118          147  0.007193656   -124.47912    348.72076 
   11800    199.97785    5.8538712      2204118          147  0.007193656    -123.2038    350.09642 
   11900    200.05549    5.8222525      2204118          147  0.007193656   -121.93811    351.54587 
   12000    200.03806    5.7931075      2204118          147  0.007193656   -120.65908    352.78363 
   12100    199.95621    5.7673401      2204118          147  0.007193656   -119.37093    353.87806 
   12200    199.94902    5.7502388      2204118          147  0.007193656   -118.09301    355.13898 
   12300    200.02954    5.7419653      2204118          147  0.007193656   -116.82712    356.59543 
   12400     200.0628     5.736452      2204118          147  0.007193656   -115.55885    357.94243 
   12500     199.9932    5.7305847      2204118          147  0.007193656   -114.29041    359.04613 
   12600    199.93876    5.7282943      2204118          147  0.007193656   -113.04904    360.15864 
   12700    199.99202    5.7363682      2204118          147  0.007193656    -111.7938    361.53995 
   12800    200.06345     5.747158      2204118          147  0.007193656   -110.57578    362.92702 
   12900    200.03264    5.7570992      2204118          147  0.007193656   -109.35364    364.07625 
   13000    199.95197    5.7675223      2204118          147  0.007193656   -108.14595      365.093 
   13100    199.95779    5.7839288      2204118          147  0.007193656   -106.97002    366.28272 
   13200    200.04065    5.8061715      2204118          147  0.007193656   -105.81771    367.63114 
   13300     200.0612    5.8276749      2204118          147  0.007193656   -104.68202    368.81545 
   13400    199.98494    5.8470446      2204118          147  0.007193656   -103.55575    369.76125 
   13500    199.94116    5.8709051      2204118          147  0.007193656   -102.43222    370.78114 
   13600    200.00425    5.9022422      2204118          147  0.007193656   -101.32079    372.04189 
   13700    200.06799    5.9347372      2204118          147  0.007193656   -100.23868    373.27488 
   13800    200.02467    5.9630611      2204118          147  0.007193656   -99.185995    374.22503 
   13900    199.94741    5.9912764      2204118          147  0.007193656   -98.154735    375.07344 
   14000    199.96676    6.0268069      2204118          147  0.007193656   -97.128132    376.14582 
   14100     200.0501    6.0660798      2204118          147  0.007193656   -96.139572    377.33164 
   14200    200.05658    6.1042969      2204118          147  0.007193656   -95.154792    378.33175 
   14300    199.97465    6.1384678      2204118          147  0.007193656   -94.214954    379.07768 
   14400    199.94252    6.1794491      2204118          147  0.007193656   -93.252324    379.96428 
   14500    200.01502    6.2282693      2204118          147  0.007193656   -92.293346    381.09483 
   14600    200.07033    6.2756486      2204118          147  0.007193656   -91.390223    382.12888 
   14700    200.01517    6.3187467      2204118          147  0.007193656   -90.509676    382.87886 
   14800    199.94359     6.361691      2204118          147  0.007193656     -89.6548    383.56433 
   14900    199.97685    6.4096067      2204118          147  0.007193656   -88.835067    384.46279 
   15000    200.05914    6.4606598      2204118          147  0.007193656   -88.033877    385.45873 
   15100    200.05112    6.5071781      2204118          147  0.007193656   -87.267237    386.20638 
   15200    199.96487    6.5507826      2204118          147  0.007193656   -86.522991    386.74649 
   15300     199.9448    6.5986021      2204118          147  0.007193656   -85.806433    387.41555 
   15400    200.02319    6.6548435      2204118          147  0.007193656   -85.078679    388.32884 
   15500     200.0675    6.7116501      2204118          147  0.007193656   -84.364275    389.14811 
   15600    200.00287     6.766759      2204118          147  0.007193656   -83.638109    389.72132 
   15700    199.93872    6.8215793      2204118          147  0.007193656    -82.96058    390.24702 
   15800    199.98413    6.8838679      2204118          147  0.007193656   -82.282858    391.03222 
   15900    200.06431    6.9464909      2204118          147  0.007193656   -81.652159    391.85267 
   16000    200.04503    7.0036073      2204118          147  0.007193656   -81.046514     392.4127 
   16100    199.95963    7.0569054      2204118          147  0.007193656   -80.460093    392.79701 
   16200    199.95111    7.1137321      2204118          147  0.007193656   -79.889496    393.34744 
   16300    200.03152    7.1750643      2204118          147  0.007193656   -79.336417    394.09081 
   16400    200.06279    7.2385834      2204118          147  0.007193656   -78.735102    394.76614 
   16500    199.99113    7.2967692      2204118          147  0.007193656   -78.167488    395.16415 
   16600    199.93964    7.3566513      2204118          147  0.007193656   -77.606035    395.60375 
   16700    199.99815    7.4185987      2204118          147  0.007193656     -77.1011    396.24717 
   16800    200.06852    7.4786715      2204118          147  0.007193656   -76.628616    396.88619 
   16900    200.03045    7.5308479      2204118          147  0.007193656   -76.193105    397.23159 
   17000    199.94628    7.5823944      2204118          147  0.007193656   -75.730106    397.49538 
   17100    199.95762    7.6362546      2204118          147  0.007193656   -75.305925    397.94641 
   17200    200.04586    7.6926413      2204118          147  0.007193656   -74.896251    398.56493 
   17300    200.06318    7.7422635      2204118          147  0.007193656   -74.529818    398.97234 
   17400    199.97985    7.7856464      2204118          147  0.007193656   -74.171749     399.1332 
   17500    199.93581    7.8308587      2204118          147  0.007193656   -73.803012    399.39769 
   17600    200.00476     7.881234      2204118          147  0.007193656   -73.430127    399.93377 
   17700    200.07024    7.9295464      2204118          147  0.007193656   -73.078257    400.44063 
   17800    200.02177    7.9737432      2204118          147  0.007193656   -72.688461    400.71569 
   17900    199.94218    8.0118551      2204118          147  0.007193656   -72.356658    400.85914 
   18000    199.96615    8.0511503      2204118          147  0.007193656   -72.066807     401.2057 
   18100    200.05371    8.0923483      2204118          147  0.007193656   -71.769318    401.71044 
   18200    200.05755    8.1237546      2204118          147  0.007193656   -71.533239    401.95561 
   18300    199.97291    8.1526437      2204118          147  0.007193656   -71.228545    402.05998 
   18400    199.94391    8.1800873      2204118          147  0.007193656    -70.95175    402.26814 
   18500    200.02027    8.2038819      2204118          147  0.007193656   -70.780959    402.61966 
   18600    200.07271    8.2273105      2204118          147  0.007193656   -70.562851    402.96186 
   18700    200.01078     8.238895      2204118          147  0.007193656   -70.427406    402.95074 
   18800    199.93696    8.2511558      2204118          147  0.007193656   -70.267242    402.93618 
   18900    199.97394    8.2690191      2204118          147  0.007193656   -70.119762    403.17121 
   19000    200.05687    8.2893037      2204118          147  0.007193656   -70.002804    403.48443 
   19100    200.04612    8.3069944      2204118          147  0.007193656   -69.901051    403.56074 
   19200     199.9617    8.3291838      2204118          147  0.007193656   -69.727026    403.53497 
   19300    199.94512    8.3557952      2204118          147  0.007193656   -69.621659     403.6011 
   19400    200.01198    8.3981148      2204118          147  0.007193656   -69.482976    403.89802 
   19500    199.99457    8.4700944      2204118          147  0.007193656   -69.175518    404.16427 
   19600    199.80629    8.6125735      2204118          147  0.007193656   -68.356555    404.53762 
   19700     199.9404     8.780464      2204118          147  0.007193656    -67.51286    405.69872 
   19800    200.52708    8.8435576      2204118          147  0.007193656    -67.64701     406.9531 
   19900    200.16339    8.8959329      2204118          147  0.007193656   -67.638693    406.10064 
   20000    198.63177    9.2515233      2204118          147  0.007193656   -65.122113    404.99225 
   20100    199.24447     9.777653      2204118          147  0.007193656   -62.130548    409.43394 
   20200    202.07034    10.038926      2204118          147  0.007193656   -61.841174    416.41146 
   20300    201.92322     9.955249      2204118          147  0.007193656   -62.949329    414.95512 
   20400    198.03462    9.9023526      2204118          147  0.007193656   -62.653468    406.04759 
   20500    196.04076     10.50987      2204118          147  0.007193656   -58.310326    405.67172 
   20600    201.10984    11.300605      2204118          147  0.007193656   -55.200015    420.77936 
   20700    206.24207     11.36615      2204118          147  0.007193656     -57.3308    430.79535 
   20800    199.84363    11.209401      2204118          147  0.007193656   -56.968842    416.01371 
   20900    193.60853    11.163017      2204118          147  0.007193656   -55.914649    402.31088 
   21000    197.72707    11.739472      2204118          147  0.007193656   -54.082006    413.89115 
   21100    205.51646     12.62055      2204118          147  0.007193656    -51.43196    434.97682 
   21200     204.0199    13.019071      2204118          147  0.007193656   -49.033872    433.83292 
   21300    195.91035    13.039153      2204118          147  0.007193656   -46.986052    416.68735 
   21400    195.96153    12.956977      2204118          147  0.007193656   -48.693036    415.10149 
   21500    201.57716    13.637513      2204118          147  0.007193656   -46.767392    430.31801 
   21600    203.55838    14.563306      2204118          147  0.007193656   -41.833006    439.94146 
   21700    200.96014    14.667269      2204118          147  0.007193656    -41.34812    434.27695 
   21800    196.33219     14.84791      2204118          147  0.007193656   -39.544364    425.12742 
   21900    197.14525    15.555038      2204118          147  0.007193656   -35.772489    430.82364 
   22000    203.28429    16.327514      2204118          147  0.007193656   -33.332772    447.79299 
   22100    203.67687    16.894773      2204118          147  0.007193656   -30.089312    451.96559 
   22200    199.72693    16.444984      2204118          147  0.007193656   -32.640398    440.06595 
   22300    196.65318    15.919568      2204118          147  0.007193656   -35.900124    429.53139 
   22400    197.77578    16.146119      2204118          147  0.007193656    -35.18252    432.90591 
   22500    201.88791    16.822358      2204118          147  0.007193656   -32.186278    445.63459 
   22600    203.88311    16.961863      2204118          147  0.007193656   -32.329611    450.21342 
   22700     200.2614    16.424819      2204118          147  0.007193656    -35.37448    438.59684 
   22800    194.72373    16.417076      2204118          147  0.007193656   -33.847372    427.01759 
   22900    197.80118    16.899314      2204118          147  0.007193656   -31.861931    436.28663 
   23000    205.26693    17.356518      2204118          147  0.007193656   -31.606597    454.21161 
   23100      202.954    17.643998      2204118          147  0.007193656    -28.92943    451.41461 
   23200    196.64565    17.335028      2204118          147  0.007193656   -29.007555    436.40612 
   23300    197.50732    16.765344      2204118          147  0.007193656   -33.445732    434.00732 
   23400    201.00548      16.9359      2204118          147  0.007193656   -33.358572     442.3738 
   23500    201.83573    17.396633      2204118          147  0.007193656    -30.26257    447.43481 
   23600    200.79241    17.283536      2204118          147  0.007193656   -30.823119    444.40497 
   23700    198.69209    16.992631      2204118          147  0.007193656   -32.322877    437.93424 
   23800    197.92866     17.10893      2204118          147  0.007193656   -31.279281    437.17099 
   23900     201.6968    17.053935      2204118          147  0.007193656   -33.149052     444.2195 
   24000    202.50234    16.910045      2204118          147  0.007193656   -34.757411    444.51767 
   24100    197.18366    17.219951      2204118          147  0.007193656   -30.967918     435.7191 
   24200    196.48968    17.794553      2204118          147  0.007193656   -26.750251    438.29428 
   24300    204.59056    17.639541      2204118          147  0.007193656     -30.7829    453.43449 
   24400    205.27154    16.952707      2204118          147  0.007193656   -35.777451    450.05167 
   24500    195.71056    16.303169      2204118          147  0.007193656   -36.898149    426.30241 
   24600    192.48977    16.345427      2204118          147  0.007193656   -35.458148    420.11955 
   24700    201.29113    17.173954      2204118          147  0.007193656   -32.518212    443.89023 
   24800     208.9291    17.640451      2204118          147  0.007193656   -31.781641    462.70405 
   24900    201.58896    17.201978      2204118          147  0.007193656   -32.084184    445.02914 
   25000    192.28885    16.474375      2204118          147  0.007193656   -33.737017    421.36516 
   25100    195.77021    16.394612      2204118          147  0.007193656   -35.109786    428.23195 
   25200    206.09271    16.786772      2204118          147  0.007193656   -35.477247    452.29538 
   25300    206.34134    16.584962      2204118          147  0.007193656   -36.638718    451.72237 
   25400     196.1546    15.774662      2204118          147  0.007193656    -38.63255    425.61894 
   25500    192.26565    15.444159      2204118          147  0.007193656    -39.52015    415.52712 
   25600    199.98266    16.175255      2204118          147  0.007193656   -37.044377    436.26723 
   25700    207.78395    16.996502      2204118          147  0.007193656   -34.065225    457.71018 
   25800     202.9704    16.897038      2204118          147  0.007193656   -33.207092    447.17578 
   25900     193.1693    16.568052      2204118          147  0.007193656   -31.952418    425.23357 
   26000    195.53188    16.530541      2204118          147  0.007193656   -32.663207    430.11445 
   26100    206.83404    16.396336      2204118          147  0.007193656   -37.233572    452.29362 
   26200    204.74917    16.305967      2204118          147  0.007193656   -36.684756    447.90804 
   26300    194.51993    15.886115      2204118          147  0.007193656   -35.681307    424.70131 
   26400    194.50071    15.575297      2204118          147  0.007193656   -37.544864    422.79227 
   26500    203.51319    15.786197      2204118          147  0.007193656   -38.738544    442.92897 
   26600    206.08479    15.936974      2204118          147  0.007193656   -38.184907    449.56899 
   26700    197.95097    15.719391      2204118          147  0.007193656   -36.679967     431.8231 
   26800    193.22124    15.742315      2204118          147  0.007193656   -34.737114     422.5718 
   26900    200.04217    16.240381      2204118          147  0.007193656   -33.544494    439.90795 
   27000    208.14878    16.370393      2204118          147  0.007193656   -35.691562     456.9473 
   27100    201.07274    16.264305      2204118          147  0.007193656    -34.34999    441.54157 
   27200    191.04393    16.571715      2204118          147  0.007193656   -28.939961    423.21579 
   27300    198.05717    16.821629      2204118          147  0.007193656   -29.961403    438.79302 
   27400    209.59294    16.911354      2204118          147  0.007193656   -33.550177    462.50668 
   27500    203.36644     16.63228      2204118          147  0.007193656   -33.535691    447.78451 
   27600    190.55201    16.505734      2204118          147  0.007193656   -30.116832    420.87466 
   27700      194.112    16.893122      2204118          147  0.007193656   -28.749187    430.66795 
   27800    208.13533     17.63422      2204118          147  0.007193656   -28.463263    464.14378 
   27900    207.62095    17.958945      2204118          147  0.007193656   -25.731445    465.65818 
   28000    194.89277    17.347736      2204118          147  0.007193656   -25.330995    435.93404 
   28100    192.42969    16.640357      2204118          147  0.007193656   -28.828027    426.60748 
   28200    203.28507    16.275785      2204118          147  0.007193656   -34.410213     446.7174 
   28300    208.00791     15.89968      2204118          147  0.007193656   -38.138082    454.16738 
   28400    197.93072    15.294539      2204118          147  0.007193656   -38.638239    429.81689 
   28500    190.71003    15.232378      2204118          147  0.007193656    -36.49937    414.86611 
   28600    198.80406    15.943184      2204118          147  0.007193656   -34.378025    436.14411 
   28700    209.00535    16.857474      2204118          147  0.007193656     -31.5313    463.13486 
   28800     204.3169    16.794069      2204118          147  0.007193656   -30.474248    453.09546 
   28900    192.28715    16.570178      2204118          147  0.007193656    -27.83448    427.26366 
   29000    193.72526    16.731816      2204118          147  0.007193656   -27.302353    431.19946 
   29100     204.6064    17.735634      2204118          147  0.007193656   -23.863747    460.39115 
   29200    208.83265    18.012452      2204118          147  0.007193656   -23.500348    470.75709 
   29300    199.15776    17.258777      2204118          147  0.007193656   -25.669686    445.68956 
   29400    190.94379    16.818173      2204118          147  0.007193656   -26.150297    425.76842 
   29500    196.91081    17.337966      2204118          147  0.007193656   -24.859656     441.1816 
   29600    207.26902    18.580776      2204118          147  0.007193656   -19.963947    470.59275 
   29700    207.01079    18.537601      2204118          147  0.007193656   -21.267455    468.67805 
   29800    191.65542    19.033265      2204118          147  0.007193656   -13.321709    440.28127 
   29900    190.18131    20.232781      2204118          147  0.007193656   -4.8431711    445.27096 
   30000    206.19177    21.688116      2204118          147  0.007193656   -0.2251813    487.78191 
   30100    210.51299    23.321852      2204118          147  0.007193656    10.004455    508.23885 
   30200    203.66456    21.679107      2204118          147  0.007193656  -0.34078498    481.68499 
   30300    183.33236    22.471683      2204118          147  0.007193656    13.046064    446.95035 
   30400    198.79933    21.102926      2204118          147  0.007193656   -3.0150597    467.49588 
   30500     206.6723    23.604273      2204118          147  0.007193656      13.1407     502.2851 
   30600    207.67565    23.749818      2204118          147  0.007193656     14.04055    505.55964 
   30700    197.72057    22.093971      2204118          147  0.007193656    5.1129765    473.07075 
   30800     185.2079    23.121786      2204118          147  0.007193656    17.512902    455.85613 
   30900     208.0153    21.522817      2204118          147  0.007193656    -2.616466    489.70649 
   31000    207.61106    23.076103      2204118          147  0.007193656    9.3188483    500.68505 
   31100    199.40315    22.040289      2204118          147  0.007193656    3.8593458    475.79937 
   31200    190.50565    22.031586      2204118          147  0.007193656    6.4104477    457.29222 
   31300    193.98625    23.925459      2204118          147  0.007193656    18.922879     478.0424 
   31400    214.55634    24.136886      2204118          147  0.007193656     12.41709    520.22113 
   31500    202.76311    25.732582      2204118          147  0.007193656    27.989706    507.88198 
   31600    190.22425    25.532733      2204118          147  0.007193656    30.341975    480.55773 
   31700    194.96438    25.890534      2204118          147  0.007193656    31.066567    492.50108 
   31800    210.51221    26.015951      2204118          147  0.007193656    25.992885    524.22544 
   31900    206.33473    26.008502      2204118          147  0.007193656    27.156175    515.50162 
   32000    191.15222    25.698429      2204118          147  0.007193656     30.27508    482.68711 
   32100    193.72029    25.044185      2204118          147  0.007193656    24.567385    483.05745 
   32200    206.62726     24.96259      2204118          147  0.007193656    19.518557    508.55634 
   32300    206.95772    24.939137      2204118          147  0.007193656    19.298788     509.1187 
   32400    197.26212    23.825547      2204118          147  0.007193656    14.187329    481.06005 
   32500    189.54561    23.970628      2204118          147  0.007193656    17.963098    466.57266 
   32600    201.27692    23.939202      2204118          147  0.007193656    13.025997    489.40079 
   32700    204.81927    25.844688      2204118          147  0.007193656    25.663312    510.42203 
   32800     200.7753    27.318771      2204118          147  0.007193656    38.599841    513.78743 
   32900    204.75002    25.330688      2204118          147  0.007193656    23.020004     507.6148 
   33000    193.36003    25.838195      2204118          147  0.007193656    32.072933    489.71032 
   33100    203.46296    23.305291      2204118          147  0.007193656    10.354992    491.90364 
   33200    200.81356    22.997987      2204118          147  0.007193656    9.7809943    485.05913 
   33300    195.97351    23.025541      2204118          147  0.007193656    11.965933    475.78883 
   33400    198.30619    23.272375      2204118          147  0.007193656    13.214111    482.55789 
   33500    203.83958    23.537492      2204118          147  0.007193656    13.261435    495.70145 
   33600    204.80667    22.820994      2204118          147  0.007193656    7.0289391    491.75782 
   33700    190.50343    24.302584      2204118          147  0.007193656    22.560356    473.43685 
   33800    199.92073     23.66908      2204118          147  0.007193656    13.569764    486.73479 
   33900    204.16166     24.99051      2204118          147  0.007193656    21.190387    504.39269 
   34000    203.05933    25.502554      2204118          147  0.007193656    24.677143    505.27048 
   34100    197.65929    25.803854      2204118          147  0.007193656    28.269624    496.08236 
   34200    196.65581     26.01888      2204118          147  0.007193656    29.988605    495.42634 
   34300    203.88311    25.470003      2204118          147  0.007193656    23.354631    505.89766 
   34400    201.34915    25.639405      2204118          147  0.007193656    26.081138     502.6269 
   34500    199.87551     24.45784      2204118          147  0.007193656    18.253463    491.31147 
   34600    197.30132    23.835364      2204118          147  0.007193656    14.951758    481.91725 
   34700    197.56355    24.046975      2204118          147  0.007193656    16.862656    484.44879 
   34800    205.51169    23.153755      2204118          147  0.007193656    7.5814962      493.979 
   34900    198.28462    23.958994      2204118          147  0.007193656    16.596419    485.88916 
   35000    198.10849     23.34752      2204118          147  0.007193656    12.206709    481.08259 
   35100    200.51965    23.170799      2204118          147  0.007193656    10.166039    484.74857 
   35200    202.02115    22.898639      2204118          147  0.007193656    7.3483864     485.4846 
   35300    196.71462    23.650477      2204118          147  0.007193656    14.815644    480.39257 
   35400    200.02162    23.526504      2204118          147  0.007193656    12.794281    486.19808 
   35500    203.05291    23.607337      2204118          147  0.007193656    12.699942    493.27809 
   35600    202.45595      22.8158      2204118          147  0.007193656    7.1508398    486.31612 
   35700    195.09287    22.762813      2204118          147  0.007193656     9.194686    470.93332 
   35800    193.65559    23.972937      2204118          147  0.007193656     18.30772    476.64464 
   35900    206.18714    24.607968      2204118          147  0.007193656     18.15943    506.15557 
   36000    208.76506    24.562993      2204118          147  0.007193656    16.889638    510.98709 
   36100    196.16423    23.724384      2204118          147  0.007193656    14.946459    479.22072 
   36200    188.64013    23.836033      2204118          147  0.007193656    18.291903    464.75843 
   36300    199.72452    24.925533      2204118          147  0.007193656    22.624932    495.32557 
   36400    214.93435    24.914417      2204118          147  0.007193656    17.929571    526.62827 
   36500    205.46039    23.050379      2204118          147  0.007193656    8.5368061     494.8129 
   36600    183.33891    22.351593      2204118          147  0.007193656    12.167656    446.08745 
   36700    189.69789    22.699166      2204118          147  0.007193656    13.283428     462.2534 
   36800    215.49833    23.435979      2204118          147  0.007193656    10.665772    520.69928 
   36900    217.56885    21.651177      2204118          147  0.007193656   -2.1278906    512.80605 
   37000    188.77235    18.883187      2204118          147  0.007193656   -11.367915    435.41152 
   37100    177.95396    17.929787      2204118          147  0.007193656   -14.077128    407.09775 
   37200    202.80665    18.672981      2204118          147  0.007193656    -17.70791    462.28741 
   37300    221.06168    20.588435      2204118          147  0.007193656   -10.683127    512.51751 
   37400    200.07865    21.368064      2204118          147  0.007193656    1.8122872    475.35107 
   37500    182.78866    21.203428      2204118          147  0.007193656    6.4958155    439.11328 
   37600    198.78517    20.571901      2204118          147  0.007193656   -3.8248283    466.65259 
   37700    215.42268    20.875959      2204118          147  0.007193656   -7.1235031    502.73097 
   37800    204.62239     20.03191      2204118          147  0.007193656   -9.5799945    474.71275 
   37900     184.7658    19.715812      2204118          147  0.007193656   -5.2225173    432.07438 
   38000     189.5532    20.672521      2204118          147  0.007193656  -0.62876103    447.99877 
   38100     211.7192    22.818882      2204118          147  0.007193656    6.4991711    507.58839 
   38200    217.06021     22.99392      2204118          147  0.007193656    4.7879245    518.51804 
   38300    188.66503     23.32006      2204118          147  0.007193656     16.76571    463.29115 
   38400    185.50961    22.650642      2204118          147  0.007193656    12.709526    451.76683 
   38500    208.60644    22.439383      2204118          147  0.007193656    3.3029509    497.02499 
   38600    214.89089    22.449824      2204118          147  0.007193656    1.4320934    510.02793 
   38700    193.02522    22.040772      2204118          147  0.007193656    6.1076163    462.95261 
   38800    185.64193    21.609384      2204118          147  0.007193656    5.6866362    445.05712 
   38900    204.92174    21.215029      2204118          147  0.007193656   -3.9471651    481.05407 
   39000     211.6162    22.119828      2204118          147  0.007193656   0.69543756    501.54087 
   39100    199.27676    21.628519      2204118          147  0.007193656    1.8891432    473.53005 
   39200    190.18008    20.649279      2204118          147  0.007193656   -1.4150061    448.69622 
   39300    197.94408    20.256399      2204118          147  0.007193656   -6.1896623    462.29711 
   39400    207.87865     20.56145      2204118          147  0.007193656   -6.7843427     485.2152 
   39500     201.0694    21.397051      2204118          147  0.007193656    2.6517019    478.53536 
   39600    197.64654    20.252848      2204118          147  0.007193656   -3.9603797    463.82218 
   39700    196.81486    19.850077      2204118          147  0.007193656   -5.8936085    459.92056 
   39800      201.886    19.454366      2204118          147  0.007193656   -10.522016    467.29435 
   39900    198.99591    20.666503      2204118          147  0.007193656  -0.60596271    470.37022 
   40000    200.68887    20.932314      2204118          147  0.007193656   0.52320486    475.50624 
   40100    203.83437    20.237967      2204118          147  0.007193656   -5.7373152    476.69037 
   40200    198.78483    19.785926      2204118          147  0.007193656   -7.0940116    463.38261 
   40300     195.5218    19.536342      2204118          147  0.007193656   -7.5019059     455.2519 
   40400    200.02347     19.55361      2204118          147  0.007193656   -8.6572907    464.75089 
   40500    204.28024    19.641482      2204118          147  0.007193656   -9.2420233    474.24093 
   40600     200.2039    19.726299      2204118          147  0.007193656   -6.9145089     466.9207 
   40700    196.14272    19.697671      2204118          147  0.007193656   -5.3291356    458.89423 
   40800    198.51242    19.958302      2204118          147  0.007193656   -3.7965241    466.03536 
   40900    203.92181    20.142965      2204118          147  0.007193656   -3.5546597    479.07996 
   41000    204.37745     19.36486      2204118          147  0.007193656   -8.4860901    475.22693 
   41100    195.49682    18.997042      2204118          147  0.007193656   -6.9875766    455.70709 
   41200    197.51265    17.832991      2204118          147  0.007193656   -15.509187    451.95648 
   41300    201.71405    17.604002      2204118          147  0.007193656   -18.184383      459.225 
   41400    200.52472    18.142498      2204118          147  0.007193656   -13.735898    460.85862 
   41500    196.82297    19.179634      2204118          147  0.007193656   -4.8556606    460.97769 
   41600    202.42733    19.125138      2204118          147  0.007193656   -7.1565377    471.94102 
   41700     205.5113    18.371946      2204118          147  0.007193656   -13.372017    473.02455 
   41800    197.50267    17.724674      2204118          147  0.007193656   -14.677701    452.76434 
   41900    194.26779    17.148459      2204118          147  0.007193656   -17.402852    442.38301 
   42000    199.11113     17.56332      2204118          147  0.007193656   -15.885518    455.36336 
   42100    205.08601    18.218979      2204118          147  0.007193656   -13.105398    472.28462 
   42200    202.61483    18.394283      2204118          147  0.007193656   -10.657568    468.88374 
   42300     197.6978    17.609236      2204118          147  0.007193656   -14.629477    453.27439 
   42400     196.0581    17.292326      2204118          147  0.007193656   -16.519534    447.50356 
   42500    199.91975    17.711087      2204118          147  0.007193656    -15.35373    457.80896 
   42600    201.62886    18.993335      2204118          147  0.007193656   -7.1670918    470.04066 
   42700    202.68768    19.296404      2204118          147  0.007193656   -5.9540677    473.75967 
   42800    199.51412    19.250864      2204118          147  0.007193656   -5.2053813    466.99728 
   42900    199.02367    18.596005      2204118          147  0.007193656   -9.5260395    461.51586 
   43000    200.02846    18.042477      2204118          147  0.007193656   -13.344519    460.07549 
   43100    200.72902    17.556842      2204118          147  0.007193656   -16.579559     458.4985 
   43200     199.7745    17.188918      2204118          147  0.007193656   -18.605259    454.21368 
   43300    198.47165    17.130915      2204118          147  0.007193656   -18.535337    451.20006 
   43400    198.29422    17.722258      2204118          147  0.007193656   -14.357253     454.9582 
   43500    201.18018    18.394484      2204118          147  0.007193656   -10.698396    465.44744 
   43600    203.50841    18.473308      2204118          147  0.007193656   -10.947168    470.70904 
   43700     199.8993    18.227408      2204118          147  0.007193656   -11.240263    461.87404 
   43800    197.10124    17.738884      2204118          147  0.007193656   -13.584625    452.90733 
   43900    196.76399    18.322659      2204118          147  0.007193656   -8.9539759    456.73979 
   44000    202.55102     18.92606      2204118          147  0.007193656   -6.3818956    473.00839 
   44100     205.7465    18.739772      2204118          147  0.007193656   -8.6353086    478.31794 
   44200    198.94778    18.161565      2204118          147  0.007193656   -10.109405    460.75288 
   44300    194.06601    17.672529      2204118          147  0.007193656   -11.478967    447.82931 
   44400    199.80217    17.400018      2204118          147  0.007193656    -15.08713     457.7973 
   44500    205.69243    17.248146      2204118          147  0.007193656   -17.898306    468.92697 
   44600    200.42906    17.138101      2204118          147  0.007193656   -16.723929    457.64418 
   44700    193.58297    17.353585      2204118          147  0.007193656   -12.737873    445.42718 
   44800    197.55724     18.01261      2204118          147  0.007193656   -9.2815229    458.28967 
   44900    206.71216    18.616816      2204118          147  0.007193656   -7.8302439    481.40849 
   45000     206.7175    17.850418      2204118          147  0.007193656   -13.217508    476.03387 
   45100    192.66478    17.506148      2204118          147  0.007193656   -10.382252    445.60965 
   45200     191.5644    17.566967      2204118          147  0.007193656   -9.2301616    444.15741 
   45300    206.86146    17.552594      2204118          147  0.007193656   -14.392176    475.19992 
   45400    209.81519    17.272778      2204118          147  0.007193656   -17.073046    479.50982 
   45500    194.80587    16.625588      2204118          147  0.007193656   -16.122063    444.93729 
   45600    189.51867     16.19936      2204118          147  0.007193656   -17.088112    431.45771 
   45700    202.23676    16.396571      2204118          147  0.007193656   -19.984764    458.66175 
   45800    208.99091    17.315683      2204118          147  0.007193656   -15.531581     479.1004 
   45900     201.4289    17.007341      2204118          147  0.007193656   -15.108516    461.62598 
   46000     191.7077    16.616017      2204118          147  0.007193656   -14.306915    439.41981 
   46100    195.70112    16.884819      2204118          147  0.007193656   -13.434365    449.74384 
   46200    208.15818    17.209223      2204118          147  0.007193656   -15.165275    477.49584 
   46300     207.1107    16.716666      2204118          147  0.007193656   -18.315402    471.86657 
   46400    192.46662    16.230159      2204118          147  0.007193656   -16.777561    438.74534 
   46500    190.24433     16.50453      2204118          147  0.007193656   -14.148881     436.1144 
   46600     205.5083    17.155706      2204118          147  0.007193656   -15.037097    471.35239 
   46700    210.79078    17.714558      2204118          147  0.007193656   -12.819278    486.07258 
   46800    198.48043    16.993919      2204118          147  0.007193656   -13.525046    456.23112 
   46900    191.34809    15.666064      2204118          147  0.007193656   -20.535141    432.34047 
   47000    196.69511    15.670483      2204118          147  0.007193656   -22.392702    443.13805 
   47100    204.85938    16.966651      2204118          147  0.007193656   -15.951128    468.90251 
   47200     206.6819    17.271587      2204118          147  0.007193656   -14.725593    474.44151 
   47300    198.21448    16.683039      2204118          147  0.007193656   -16.466825    452.65991 
   47400    190.95407    16.901496      2204118          147  0.007193656   -12.837889    439.10518 
   47500    196.97002    18.419723      2204118          147  0.007193656   -4.1652884    462.01609 
   47600    211.80144    19.015295      2204118          147  0.007193656   -5.2598967    496.02395 
   47700    207.05597    18.353524      2204118          147  0.007193656   -8.0728002    481.97964 
   47800     191.4755    16.801155      2204118          147  0.007193656   -13.319447    439.85772 
   47900    190.06727    16.073069      2204118          147  0.007193656     -17.6221    432.22212 
   48000    203.45522    16.753853      2204118          147  0.007193656   -17.086344    464.44399 
   48100     210.3378    17.550779      2204118          147  0.007193656   -13.679854    484.13991 
   48200    199.90045     17.30782      2204118          147  0.007193656   -11.710914    461.40611 
   48300    190.88073    16.766371      2204118          147  0.007193656   -12.210736    439.55874 
   48400    198.66464    16.336288      2204118          147  0.007193656   -17.974926    452.21722 
   48500    206.47995    16.877981      2204118          147  0.007193656   -16.746443    471.94269 
   48600    200.92665    17.682531      2204118          147  0.007193656   -8.8902082    466.65558 
   48700    197.18651    17.301139      2204118          147  0.007193656   -10.390264     456.3035 
   48800     197.7237    17.370261      2204118          147  0.007193656   -9.6849598    458.28022 
   48900    202.76009    17.373477      2204118          147  0.007193656   -10.947606    468.93752 
   49000    204.43129    16.764986      2204118          147  0.007193656   -15.252317    468.58813 
   49100    198.93917    15.647721      2204118          147  0.007193656   -20.947376    449.89452 
   49200    194.07466    15.146606      2204118          147  0.007193656   -22.706152    436.62261 
   49300    197.30348    15.773808      2204118          147  0.007193656   -19.636095    447.33451 
   49400    203.97583    17.089901      2204118          147  0.007193656   -12.961285    469.80121 
   49500     206.4514    17.127634      2204118          147  0.007193656   -14.353811    474.26775 
   49600    196.56767    17.132957      2204118          147  0.007193656    -11.34531    453.88381 
   49700    193.10431     17.21859      2204118          147  0.007193656   -9.9348003    447.09736 
   49800    200.94389    17.893812      2204118          147  0.007193656   -8.0264367    467.56015 
   49900    208.16719    18.214746      2204118          147  0.007193656   -8.0072356     484.6752 
   50000    202.81002    17.343996      2204118          147  0.007193656   -11.864901    468.13839 
   50100     194.1743     15.71307      2204118          147  0.007193656   -20.449538    439.11505 
   50200    191.55574    15.907439      2204118          147  0.007193656   -18.087787    435.27929 
   50300    200.88444    17.483359      2204118          147  0.007193656   -10.017247    465.42865 
   50400    211.59831    18.114866      2204118          147  0.007193656   -9.2199305    491.58316 
   50500    204.14918    17.078937      2204118          147  0.007193656   -13.758086    469.41467 
   50600    188.62254    16.256856      2204118          147  0.007193656   -13.521558    432.90332 
   50700    193.68014    15.763371      2204118          147  0.007193656   -18.230047    440.16498 
   50800    209.27425    15.915466      2204118          147  0.007193656   -22.085426    473.21716 
   50900    206.46064    16.245219      2204118          147  0.007193656   -18.303895    470.33955 
   51000    194.84631    15.326103      2204118          147  0.007193656   -20.986243    440.16883 
   51100    191.58845     15.06394      2204118          147  0.007193656   -21.925901    431.51858 
   51200    200.07339    16.248905      2204118          147  0.007193656   -16.687111    456.83923 
   51300    209.35975    17.261213      2204118          147  0.007193656   -13.152325    482.35261 
   51400    203.36479    17.208262      2204118          147  0.007193656   -12.039542    469.27677 
   51500    190.78465    17.281781      2204118          147  0.007193656    -7.549882     443.9922 
   51600    194.17889    17.824273      2204118          147  0.007193656   -4.9935233    454.58192 
   51700    209.60726    18.121652      2204118          147  0.007193656   -8.0416437     488.0491 
   51800    209.26692    17.338168      2204118          147  0.007193656   -13.078407    482.20684 
   51900    191.85354     16.30796      2204118          147  0.007193656    -13.71583    440.35607 
   52000    188.60807    15.892874      2204118          147  0.007193656   -14.913666    431.47697 
   52100    204.24741    16.391833      2204118          147  0.007193656   -16.052353     467.3529 
   52200    213.54884       16.413      2204118          147  0.007193656   -18.459692    486.95983 
   52300    199.77941     15.16894      2204118          147  0.007193656   -22.325026    450.50553 
   52400    183.96671    15.140921      2204118          147  0.007193656   -16.709197    418.69643 
   52500    196.13284    15.816357      2204118          147  0.007193656   -16.162238    448.03774 
   52600    216.78151    16.550157      2204118          147  0.007193656   -18.467858    494.60265 
   52700    203.89151    17.416015      2204118          147  0.007193656   -7.9897244     474.5732 
   52800    186.85728    17.294588      2204118          147  0.007193656   -3.2826601    438.96426 
   52900    193.55606    17.545452      2204118          147  0.007193656   -3.6967174    454.40464 
   53000    213.61298    17.582334      2204118          147  0.007193656   -10.125987    495.44536 
   53100    207.85772    17.286429      2204118          147  0.007193656    -9.844657    482.10534 
   53200    189.06892    16.450602      2204118          147  0.007193656   -8.9091816    438.57219 
   53300    190.12229    15.954386      2204118          147  0.007193656   -12.668742     437.3057 
   53400    206.31587    16.853861      2204118          147  0.007193656   -11.364264    476.93654 
   53500    213.70957    16.697573      2204118          147  0.007193656   -14.956088    490.84386 
   53600    196.95664    15.526639      2204118          147  0.007193656   -17.691724      448.458 
   53700    184.62017    15.210564      2204118          147  0.007193656   -15.964381    420.98784 
   53800    195.16435    16.808617      2204118          147  0.007193656   -8.3046743    453.60312 
   53900    215.54773    18.559954      2204118          147  0.007193656   -2.6962147    507.45421 
   54000    212.73589    17.541551      2204118          147  0.007193656    -9.042107    494.45337 
   54100    186.13725    16.479511      2204118          147  0.007193656   -6.9426049    433.60018 
   54200    183.71634    16.387308      2204118          147  0.007193656   -6.2825056    428.53055 
   54300    211.70247    16.408051      2204118          147  0.007193656   -15.754605      485.295 
   54400    215.98589    17.020534      2204118          147  0.007193656   -12.697378    498.49007 
   54500    191.31176    16.865605      2204118          147  0.007193656   -5.4987039    447.29092 
   54600    185.02061    16.487715      2204118          147  0.007193656   -6.4776573    431.42231 
   54700    204.01564    17.041655      2204118          147  0.007193656   -9.5299857    473.32672 
   54800     214.3508    18.142961      2204118          147  0.007193656   -5.5612466    501.75634 
   54900    200.11306    17.948004      2204118          147  0.007193656    -2.254354    471.36586 
   55000    188.72187    16.893637      2204118          147  0.007193656   -6.0463317    440.61363 
   55100    193.92629    17.375666      2204118          147  0.007193656   -4.2092483    454.76836 
   55200    212.53197    17.688556      2204118          147  0.007193656   -8.3259604    494.68689 
   55300    210.89557    16.888188      2204118          147  0.007193656   -13.535249    485.60462 
   55400    188.91524     15.97367      2204118          147  0.007193656   -12.420642    434.69699 
   55500    186.30679    15.817087      2204118          147  0.007193656   -12.709915    428.23413 
   55600    207.58415    16.403775      2204118          147  0.007193656   -16.200747    475.10177 
   55700    213.87401     17.30415      2204118          147  0.007193656   -12.494958    493.69416 
   55800    192.74447    18.447022      2204118          147  0.007193656    3.1497432    459.33026 
   55900    193.22134    16.818361      2204118          147  0.007193656   -9.3681658    447.94098 
   56000    201.35158    16.942961      2204118          147  0.007193656   -11.320495      465.231 
   56100    205.64054    17.524899      2204118          147  0.007193656   -8.8483413    477.85413 
   56200    199.39235    18.057041      2204118          147  0.007193656   -2.8372133    469.07726 
   56300    198.43069    17.169116      2204118          147  0.007193656   -9.1699191    460.46852 
   56400    196.07177    17.855133      2204118          147  0.007193656    -2.973895    461.08154 
   56500    204.46705     17.13196      2204118          147  0.007193656   -11.372054    472.55302 
   56600    202.25729    17.095969      2204118          147  0.007193656   -10.896631    467.79848 
   56700    195.79685    17.066429      2204118          147  0.007193656   -8.8803599    454.52442 
   56800    197.43455     17.06931      2204118          147  0.007193656   -9.4934298    457.78739 
   56900    203.16816    17.413379      2204118          147  0.007193656   -9.1234152    471.72751 
   57000    202.77096    17.768152      2204118          147  0.007193656   -6.4172319    473.49361 
   57100    199.20846    17.345505      2204118          147  0.007193656   -8.0597041    463.41955 
   57200    197.99894     16.63712      2204118          147  0.007193656   -12.607137    456.00946 
   57300    197.67878    16.941003      2204118          147  0.007193656   -10.219801    457.63905 
   57400    198.95869    18.269807      2204118          147  0.007193656  -0.89348473    469.99463 
   57500    206.81236    18.018964      2204118          147  0.007193656   -5.7251939    483.75068 
   57600    203.71439    17.108319      2204118          147  0.007193656   -11.492382    470.65134 
   57700    191.34931    17.056146      2204118          147  0.007193656   -7.8505519    445.02795 
   57800    192.68762      17.9526      2204118          147  0.007193656   -2.0511515    453.99482 
   57900    210.79885    17.994875      2204118          147  0.007193656    -8.236125    490.67483 
   58000    209.74833    17.313786      2204118          147  0.007193656   -12.804296    483.62033 
   58100    189.79417    16.777945      2204118          147  0.007193656   -9.5809663    439.61688 
   58200    188.40642    16.662506      2204118          147  0.007193656   -10.325945    435.58743 
   58300    203.23995    18.561058      2204118          147  0.007193656   -2.0900649    478.93077 
   58400    213.44476    20.171374      2204118          147  0.007193656    5.5796243    510.75282 
   58500    203.16535    19.655511      2204118          147  0.007193656    5.1373568    485.98163 
   58600    190.19138    18.176776      2204118          147  0.007193656  -0.82895095    449.30902 
   58700    193.09868    17.587076      2204118          147  0.007193656   -5.3695002    451.64934 
   58800    207.09976    17.655316      2204118          147  0.007193656   -8.6616408    481.49445 
   58900    210.04416    16.826791      2204118          147  0.007193656   -14.622118    482.50267 
   59000    194.20087    15.827308      2204118          147  0.007193656    -15.40405    444.22341 
   59100    187.87688    15.610363      2204118          147  0.007193656   -14.401731    430.25835 
   59200    201.17662    16.496135      2204118          147  0.007193656   -12.848098    463.28932 
   59300    210.51293     18.27277      2204118          147  0.007193656   -3.2790402    494.95521 
   59400    204.78431    17.970279      2204118          147  0.007193656   -3.6764757    480.99948 
   59500    191.00293    17.398387      2204118          147  0.007193656   -2.6727651    449.38593 
   59600    194.81389    16.625831      2204118          147  0.007193656   -9.3339679    451.74436 
   59700    206.48333    16.606669      2204118          147  0.007193656   -13.338645    475.35851 
   59800    205.78411    16.552621      2204118          147  0.007193656   -13.521443    473.52082 
   59900     194.2288    16.470438      2204118          147  0.007193656   -10.335807    449.35776 
   60000     192.2148    16.956909      2204118          147  0.007193656   -6.4743877    448.45252 
   60100    203.42523     18.09972      2204118          147  0.007193656   -2.1741984    479.28515 
   60200    213.87184    17.184028      2204118          147  0.007193656   -12.930611    493.25339 
   60300    196.90466    16.295969      2204118          147  0.007193656   -13.549852    452.47685 
   60400    185.19237    15.975914      2204118          147  0.007193656    -12.03414    426.27234 
   60500    196.72755    17.140145      2204118          147  0.007193656   -7.9749525    457.63257 
   60600    213.02365    19.109916      2204118          147  0.007193656   0.54619933    504.72272 
   60700    209.52747       18.787      2204118          147  0.007193656  -0.66962524    495.23228 
   60800    191.86687    17.046122      2204118          147  0.007193656   -7.1029283    447.00051 
   60900    185.93147    16.821318      2204118          147  0.007193656    -6.823524    433.23223 
   61000    199.09797    19.036923      2204118          147  0.007193656    4.5577054    475.77546 
   61100     219.2494    19.724341      2204118          147  0.007193656     2.186562    521.09797 
   61200    206.74831    18.377453      2204118          147  0.007193656    -3.200106    486.12418 
   61300      183.856    16.648101      2204118          147  0.007193656   -7.6362464    427.50737 
   61400    187.05723    16.438853      2204118          147  0.007193656   -10.575357     432.1448 
   61500    208.92853    18.437469      2204118          147  0.007193656   -4.4380733    490.04629 
   61600    211.76002    21.192623      2204118          147  0.007193656    13.691475     514.8773 
   61700    200.17862    20.888121      2204118          147  0.007193656    14.623408     488.3988 
   61800    193.13308    19.173013      2204118          147  0.007193656     4.275017    461.37528 
   61900    195.00874    18.775289      2204118          147  0.007193656    0.9640994    462.50361 
   62000    205.15766    18.859602      2204118          147  0.007193656   -1.7252027    483.83439 
   62100    206.54443    18.516809      2204118          147  0.007193656   -4.7405035    484.10125 
   62200    194.08948    18.657552      2204118          147  0.007193656   0.53335372    459.89718 
   62300    192.77748    18.903085      2204118          147  0.007193656    2.6677211    458.92635 
   62400    202.85824    19.909015      2204118          147  0.007193656    6.5941995    486.71161 
   62500    209.46058    20.603575      2204118          147  0.007193656    9.9032364    505.64682 
   62600    204.24926    19.132678      2204118          147  0.007193656    1.6211083    485.03074 
   62700    191.12758     17.66071      2204118          147  0.007193656   -3.9489279    448.40478 
   62800    190.90504    17.598095      2204118          147  0.007193656   -3.7825813    448.04443 
   62900    206.46816    18.070461      2204118          147  0.007193656   -5.4656406    483.19559 
   63000     211.0748    18.117588      2204118          147  0.007193656   -6.6491728    492.91489 
   63100    196.47869    17.258299      2204118          147  0.007193656   -7.9348119    457.08373 
   63200    187.17558     17.13689      2204118          147  0.007193656    -5.594329    437.40594 
   63300    200.28409    17.537783      2204118          147  0.007193656    -7.605887    466.41913 
   63400    211.44533      18.6292      2204118          147  0.007193656   -4.1017433    496.33929 
   63500    200.09901    19.789665      2204118          147  0.007193656    8.1330809    481.72005 
   63600    194.33643    19.049981      2204118          147  0.007193656    4.3851403    464.33344 
   63700    198.34167    18.756672      2204118          147  0.007193656   0.71192464    470.13969 
   63800    202.03139    19.781472      2204118          147  0.007193656    7.2844351    485.44489 
   63900    206.88213    18.868103      2204118          147  0.007193656  -0.93083743    488.71016 
   64000    197.52602    18.198934      2204118          147  0.007193656   -2.2599422    465.23737 
   64100    191.27074    18.277469      2204118          147  0.007193656   0.80517955    453.49772 
   64200    202.74605    17.897225      2204118          147  0.007193656   -6.1855393    473.66635 
   64300    206.20885    18.601557      2204118          147  0.007193656   -2.4741867    485.57333 
   64400    199.37371     18.74619      2204118          147  0.007193656   0.84859305    472.71896 
   64500     195.8819    18.036784      2204118          147  0.007193656   -3.4693677     460.1367 
   64600    196.68092    18.538718      2204118          147  0.007193656  -0.51200306    464.98515 
   64700    200.50266    20.179639      2204118          147  0.007193656    9.8356869    484.37801 
   64800    207.42052    20.523303      2204118          147  0.007193656    9.9221217    500.83737 
   64900    205.83882     18.68716      2204118          147  0.007193656    -2.708375    484.46337 
   65000    189.73608    18.025418      2204118          147  0.007193656   -1.3210792     447.7393 
   65100    192.30476    17.577346      2204118          147  0.007193656   -5.6377679    449.50205 
   65200    204.70095    18.965898      2204118          147  0.007193656  0.061519484     484.5402 
   65300    209.41644    20.069678      2204118          147  0.007193656    6.6699974    502.30912 
   65400    202.45328    18.632484      2204118          147  0.007193656   -1.1849764    477.97399 
   65500     190.8076    17.301227      2204118          147  0.007193656   -6.3810107    445.21539 
   65600    194.02075    16.864066      2204118          147  0.007193656    -10.23305    448.96813 
   65700    206.69073      17.2263      2204118          147  0.007193656   -11.893472    477.29453 
   65800     205.3563    18.045143      2204118          147  0.007193656   -5.4073009    480.62243 
   65900    197.40582    17.510459      2204118          147  0.007193656   -6.6394254    460.57341 
   66000    194.14126    17.151728      2204118          147  0.007193656   -8.1284175    451.35797 
   66100    199.14237    17.756727      2204118          147  0.007193656   -5.4174604    465.90538 
   66200    204.87446    18.692446      2204118          147  0.007193656  -0.38457882    484.50475 
   66300    205.49221    18.028654      2204118          147  0.007193656   -5.2234487    481.12795 
   66400    197.20985    16.892424      2204118          147  0.007193656   -10.203459    456.54556 
   66500    193.31458    16.230226      2204118          147  0.007193656   -13.802376    443.72745 
   66600    196.42473    17.481317      2204118          147  0.007193656   -6.3465376    458.54428 
   66700    203.96165    19.623444      2204118          147  0.007193656    6.2110993    488.94001 
   66800    211.56437    19.091125      2204118          147  0.007193656  -0.69323701    500.02953 
   66900    199.21672    17.655972      2204118          147  0.007193656   -6.5111522    464.98764 
   67000    186.39949    17.109328      2204118          147  0.007193656   -5.3462464     435.8172 
   67100    198.65462    16.694285      2204118          147  0.007193656   -12.086767    458.08167 
   67200    213.38936    16.577814      2204118          147  0.007193656   -17.684183     487.3579 
   67300    201.15623    16.720933      2204118          147  0.007193656   -12.088223    464.00093 
   67400    189.01543    16.216003      2204118          147  0.007193656   -11.732741    435.62203 
   67500    194.23039    16.856487      2204118          147  0.007193656   -9.0709418    450.62639 
   67600    207.04815    18.808347      2204118          147  0.007193656   0.61252378    490.64646 
   67700    212.72018    18.589411      2204118          147  0.007193656   -2.9226539    500.53563 
   67800    198.21198    16.671537      2204118          147  0.007193656   -11.785933    457.33488 
   67900    184.45972    16.089404      2204118          147  0.007193656   -11.218222    425.35424 
   68000    195.72339    16.831099      2204118          147  0.007193656   -10.406257    452.82466 
   68100    212.46229    18.866122      2204118          147  0.007193656   -1.9965734    500.85136 
   68200    210.79238    18.742944      2204118          147  0.007193656   -2.8407503    496.05488 
   68300    190.96247    17.739303      2204118          147  0.007193656   -3.2706407     448.6923 
   68400    188.29759    16.905197      2204118          147  0.007193656   -8.3537375    437.30206 
   68500    204.82635    17.031698      2204118          147  0.007193656   -13.242967     471.5325 
   68600    209.06865    18.364614      2204118          147  0.007193656   -5.0672164    489.74876 
   68700    199.49624    18.317266      2204118          147  0.007193656   -2.3320241    469.82832 
   68800    193.15748     17.62042      2204118          147  0.007193656   -5.4517974    451.70622 
   68900     196.7429    18.009362      2204118          147  0.007193656   -3.7307307    461.91313 
   69000    207.06115    18.296745      2204118          147  0.007193656   -4.8200586    485.24465 
   69100    207.01701    17.332536      2204118          147  0.007193656   -11.396009    478.56422 
   69200    192.54617    16.767639      2204118          147  0.007193656   -9.9173329    445.79384 
   69300     190.8984    16.768725      2204118          147  0.007193656   -9.0948699    442.71643 
   69400    206.76834    16.767756      2204118          147  0.007193656   -14.794686    474.57701 
   69500    208.76483    17.132775      2204118          147  0.007193656   -13.250995    480.84593 
   69600    192.52199    18.091182      2204118          147  0.007193656  -0.79271617    454.86125 
   69700     195.9452    17.054732      2204118          147  0.007193656    -10.17655    453.57934 
   69800    203.36852    17.240524      2204118          147  0.007193656   -11.739212    469.58591 
   69900    203.49889    17.703817      2204118          147  0.007193656   -8.6383691    472.99532 
   70000    198.63591      17.5495      2204118          147  0.007193656   -8.1530417     461.9711 
   70100    197.07504    17.164748      2204118          147  0.007193656   -10.253443    456.17651 
   70200    200.19313    17.073027      2204118          147  0.007193656   -11.748104    462.06163 
   70300    203.27792    16.852738      2204118          147  0.007193656   -14.211508    466.89919 
   70400    199.81581     16.74133      2204118          147  0.007193656   -13.575032    459.34166 
   70500    196.61716     16.71513      2204118          147  0.007193656   -12.621587    452.72466 
   70600    199.67073    16.775286      2204118          147  0.007193656   -13.603808    458.96953 
   70700    201.34097     17.57492      2204118          147  0.007193656   -8.9324203    467.59397 
   70800    199.33629    18.727424      2204118          147  0.007193656  -0.32722608    471.45457 
   70900    200.73645    19.087855      2204118          147  0.007193656     1.624954    476.72059 
   71000    202.62571    18.797044      2204118          147  0.007193656    -1.140576    478.42649 
   71100    198.06312    19.019371      2204118          147  0.007193656    2.3516768    471.12018 
   71200    197.59041    18.999765      2204118          147  0.007193656    2.6432787    470.29298 
   71300    202.79916    18.643043      2204118          147  0.007193656   -1.2876295    478.68996 
   71400    203.83464    17.860348      2204118          147  0.007193656    -6.850593    475.57772 
   71500     198.0004    16.921041      2204118          147  0.007193656   -11.178647    457.44142 
   71600    195.62732     16.15879      2204118          147  0.007193656   -15.870192    447.13335 
   71700    196.03566    17.318037      2204118          147  0.007193656   -7.6554145    456.31456 
   71800    204.53519     18.32698      2204118          147  0.007193656   -3.5199468    480.56642 
   71900    207.92984     18.08777      2204118          147  0.007193656   -6.4254113    485.69529 
   72000    197.72925    17.164795      2204118          147  0.007193656   -9.1253178    458.85298 
   72100     191.0794    16.617847      2204118          147  0.007193656   -10.202107    442.03757 
   72200    199.70518     16.61671      2204118          147  0.007193656   -12.742577    459.91228 
   72300    208.18317    16.982454      2204118          147  0.007193656   -12.897489    479.82278 
   72400    200.68624    17.407416      2204118          147  0.007193656   -7.3077453    467.66907 
   72500    191.52041    18.058566      2204118          147  0.007193656   0.39601103    453.67947 
   72600    199.63325    18.248585      2204118          147  0.007193656   -1.4171302    471.06749 
   72700    209.80865    18.034817      2204118          147  0.007193656   -6.7640938    489.80329 
   72800    202.29154     17.29246      2204118          147  0.007193656    -9.568627    469.20754 
   72900    191.46737    16.307331      2204118          147  0.007193656   -13.359211    439.79872 
   73000     192.6955    16.806546      2204118          147  0.007193656   -10.627536    445.43707 
   73100    204.92917    18.339639      2204118          147  0.007193656   -4.5588503    480.45997 
   73200    208.82691    19.553806      2204118          147  0.007193656    2.3151484      496.559 
   73300    197.22739    20.043299      2204118          147  0.007193656    10.148927    476.93946 
   73400    195.64569    18.747264      2204118          147  0.007193656    1.6075644    464.65459 
   73500    201.26343    17.857562      2204118          147  0.007193656   -6.2345568    470.10831 
   73600    200.23014    18.439765      2204118          147  0.007193656   -1.1367544    472.76057 
   73700    199.74227    18.731146      2204118          147  0.007193656    1.4133176    474.15598 
   73800    202.98273    17.982269      2204118          147  0.007193656   -5.0556598     475.3564 
   73900    198.81822    17.830967      2204118          147  0.007193656    -4.199788    466.35584 
   74000    198.42093     17.08867      2204118          147  0.007193656   -9.1192737    460.49607 
   74100     199.1315    17.015554      2204118          147  0.007193656   -9.5288648    461.76825 
   74200    200.61578    17.252818      2204118          147  0.007193656   -8.0747588    466.73528 
   74300    201.31492    17.415628      2204118          147  0.007193656   -6.9266327    469.53812 
   74400    200.36782    17.265259      2204118          147  0.007193656   -7.8418717    466.38131 
   74500    198.31715    17.290456      2204118          147  0.007193656   -7.2640757    462.10565 
   74600    199.16101    17.470704      2204118          147  0.007193656   -6.9019895    464.46495 
   74700    200.07128     18.19776      2204118          147  0.007193656    -2.627595    470.89375 
   74800    199.75432    19.263969      2204118          147  0.007193656    4.7477343     477.5189 
   74900    203.19873    19.150225      2204118          147  0.007193656    2.5012508    483.42452 
   75000    203.17612    18.070118      2204118          147  0.007193656    -5.196278    475.67349 
   75100    196.33042    17.273412      2204118          147  0.007193656   -8.2964505    456.37117 
   75200     195.0185    17.017228      2204118          147  0.007193656    -9.763175    451.79943 
   75300    200.64207    17.714475      2204118          147  0.007193656   -6.8472275    468.02505 
   75400    205.36936    18.330602      2204118          147  0.007193656   -4.2667042    481.79394 
   75500    200.98253    18.475291      2204118          147  0.007193656   -1.7757137    473.90234 
   75600    195.92453    18.184297      2204118          147  0.007193656   -1.9908155    461.71616 
   75700    199.01877    17.761534      2204118          147  0.007193656   -5.7896104     465.2407 
   75800     203.1851    17.584486      2204118          147  0.007193656   -8.0539933    472.83702 
   75900    203.14504    16.799479      2204118          147  0.007193656   -13.372159    467.42405 
[...]
  381700    196.95707    18.612938      2204118          147  0.007193656   0.47378044    466.62453 
  381800    198.55137    18.631094      2204118          147  0.007193656  -0.12481593    469.79925 
  381900    210.74362    19.268647      2204118          147  0.007193656   0.35377243    499.13401 
  382000    212.51047    19.202193      2204118          147  0.007193656   -0.6887371    502.27321 
  382100    198.19951    18.540174      2204118          147  0.007193656  -0.28982201    468.80147 
  382200    196.74679    18.619939      2204118          147  0.007193656   0.85653756     466.5096 
  382300    201.99371    18.885608      2204118          147  0.007193656    1.1791722    479.25046 
  382400    207.14397    18.804536      2204118          147  0.007193656  -0.90088099    489.35985 
  382500    197.43443    17.686805      2204118          147  0.007193656   -5.5382421     461.7423 
  382600    190.21089    17.509601      2204118          147  0.007193656   -4.1881858    445.99595 
  382700    199.94936    17.629617      2204118          147  0.007193656   -6.9407561    466.29203 
  382800    203.48786    17.907553      2204118          147  0.007193656   -6.4950725    475.11249 
  382900    197.43291    18.919583      2204118          147  0.007193656    2.9067493     470.1837 
  383000    201.03107    18.613319      2204118          147  0.007193656  -0.69483297    475.09809 
  383100    215.26605    18.469947      2204118          147  0.007193656   -6.5885995    502.89517 
  383200    208.01396     17.89811      2204118          147  0.007193656   -8.3411371    483.97864 
  383300    196.29499    17.394614      2204118          147  0.007193656   -8.4657736    456.11797 
  383400    195.40689    18.070912      2204118          147  0.007193656   -4.0363031    458.44553 
  383500    202.68084    19.312306      2204118          147  0.007193656    1.8107799    481.50832 
  383600    205.97129    19.910641      2204118          147  0.007193656    4.9398645    492.42513 
  383700    199.93206    18.478741      2204118          147  0.007193656   -3.0024376    470.18941 
  383800    190.76441    17.246621      2204118          147  0.007193656    -8.100615    443.39357 
  383900    196.40891    17.402683      2204118          147  0.007193656   -8.5639029    456.28946 
  384000    202.66165    18.078832      2204118          147  0.007193656   -5.7419202    473.91021 
  384100    202.78708    18.629772      2204118          147  0.007193656   -1.9438375    478.00516 
  384200    194.20137    19.221217      2204118          147  0.007193656    5.3152485     464.9439 
  384300      189.203    19.182102      2204118          147  0.007193656    7.1724245    454.97112 
  384400    205.73557    18.743384      2204118          147  0.007193656  -0.98858912    485.93878 
  384500    209.36098    17.693803      2204118          147  0.007193656   -8.7266427    486.78121 
  384600    198.24117    16.904978      2204118          147  0.007193656   -9.6805472    459.50934 
  384700    194.60582     17.45377      2204118          147  0.007193656   -4.0088943    456.57699 
  384800    201.44445    17.765369      2204118          147  0.007193656   -4.2146164    472.55669 
  384900    205.49885    17.722684      2204118          147  0.007193656   -6.2023867    480.16473 
  385000    193.70957    17.289385      2204118          147  0.007193656   -5.4332271    453.03146 
  385100    184.82137    17.050196      2204118          147  0.007193656   -4.0954734    433.33294 
  385200    195.37229    17.580345      2204118          147  0.007193656   -3.6763874    458.72356 
  385300    204.40509    17.399547      2204118          147  0.007193656   -8.0406411    475.73781 
  385400     201.6283    17.678602      2204118          147  0.007193656   -4.8416027    472.36483 
  385500    195.21155     17.04902      2204118          147  0.007193656   -7.2275232    454.79198 
  385600    190.89065    16.857884      2204118          147  0.007193656   -7.1288432    444.66413 
  385700    203.82868    17.748821      2204118          147  0.007193656   -5.1304932    477.28371 
  385800    210.39014    17.059646      2204118          147  0.007193656   -12.386146    485.55748 
  385900     199.6742       16.172      2204118          147  0.007193656   -15.151937    457.42962 
  386000    194.54044    16.457451      2204118          147  0.007193656   -11.721108    448.71004 
  386100    198.39048    17.566781      2204118          147  0.007193656   -5.7371873    463.80611 
  386200    204.64143     18.39231      2204118          147  0.007193656   -2.6790799    481.65871 
  386300     202.2163     18.67385      2204118          147  0.007193656  -0.33726931    478.26082 
  386400    200.96182    18.371613      2204118          147  0.007193656   -2.6832284     472.9458 
  386500    198.32527    18.662934      2204118          147  0.007193656 -0.051002722    469.33794 
  386600    197.72859    19.490613      2204118          147  0.007193656    5.6193336    473.59607 
  386700    206.90243    21.014998      2204118          147  0.007193656    13.270139    502.95919 
  386800    212.56103    20.335424      2204118          147  0.007193656    6.4158481    509.49747 
  386900    202.66188    18.735551      2204118          147  0.007193656   -1.0691611     478.5835 
  387000    199.78083    17.913869      2204118          147  0.007193656   -5.2844482    467.54946 
  387100    197.89274    17.379551      2204118          147  0.007193656   -7.9049213    460.46033 
  387200    198.06973    17.378531      2204118          147  0.007193656   -7.5534037    461.23073 
  387300    205.03756    17.753016      2204118          147  0.007193656   -7.0117319    478.26361 
  387400    209.15169    17.791953      2204118          147  0.007193656   -8.1230657    486.88945 
  387500    194.03075    17.461955      2204118          147  0.007193656   -5.0086798    454.21615 
  387600    192.52821    17.548462      2204118          147  0.007193656   -3.6784816    451.99019 
  387700    201.19181     17.71828      2204118          147  0.007193656   -5.2232966    470.95007 
  387800    201.71678    18.216593      2204118          147  0.007193656   -1.4378882    475.97797 
  387900    200.53221    18.000768      2204118          147  0.007193656   -2.3592533      472.253 
  388000    198.11799    17.459215      2204118          147  0.007193656   -5.1822189    463.71615 
  388100    187.37726    16.627989      2204118          147  0.007193656   -7.2003313    436.27727 
  388200    191.27709    17.014636      2204118          147  0.007193656   -5.5427766    447.16479 
  388300    204.18768    17.343634      2204118          147  0.007193656   -7.6116989    475.65219 
  388400    204.14819    17.007018      2204118          147  0.007193656   -10.137288    473.03313 
  388500    195.44728    16.644609      2204118          147  0.007193656   -10.158029    452.41939 
  388600    192.64221    17.075832      2204118          147  0.007193656   -6.8269189    449.11157 
  388700    206.29046    18.992495      2204118          147  0.007193656    1.3676226    489.60829 
  388800    205.07767    19.776239      2204118          147  0.007193656    6.7925905    492.16287 
  388900    199.52674    18.991727      2204118          147  0.007193656    2.7490602    474.98159 
  389000    196.48158    17.998917      2204118          147  0.007193656   -3.4987615    461.52661 
  389100      196.354    18.350388      2204118          147  0.007193656  -0.85325512    463.87017 
  389200    211.90869    19.038395      2204118          147  0.007193656   -1.4681665    500.06952 
  389300    208.18307    18.553807      2204118          147  0.007193656   -3.9875265     488.7325 
  389400    196.80083    18.454298      2204118          147  0.007193656   -1.0375492    464.74341 
  389500    196.27461    18.965415      2204118          147  0.007193656    2.6040714    467.13959 
  389600    203.42562    19.487464      2204118          147  0.007193656    3.8922652    485.35253 
  389700    208.29273    18.935036      2204118          147  0.007193656   -1.9044494    491.07512 
  389800    191.19387    17.883585      2204118          147  0.007193656   -3.5781933    448.93242 
  389900    192.45733    17.993518      2204118          147  0.007193656   -3.4174513    452.08347 
  390000    200.12008    19.358409      2204118          147  0.007193656    3.6508797    477.28771 
  390100    203.82408    19.946545      2204118          147  0.007193656    6.4226435    488.82597 
  390200    200.44518    19.924277      2204118          147  0.007193656    7.2973029    481.70356 
  390300     190.0453    19.769165      2204118          147  0.007193656    10.072098    459.86431 
  390400    189.73747    18.878237      2204118          147  0.007193656    4.2493615    453.31302 
  390500    208.50909    18.479698      2204118          147  0.007193656   -4.6117757    488.87986 
  390600    205.80094    18.209388      2204118          147  0.007193656    -4.881798     482.2003 
  390700    195.60472    17.941781      2204118          147  0.007193656   -2.7484896    460.20156 
  390800    197.93521    17.458764      2204118          147  0.007193656   -6.8310717    461.63469 
  390900    202.12089    17.647053      2204118          147  0.007193656   -6.6997977    471.67249 
  391000    203.25506    18.407248      2204118          147  0.007193656   -1.6344585    479.42213 
  391100    208.13108     18.47542      2204118          147  0.007193656   -3.1917173    489.40527 
  391200     199.8203    17.934337      2204118          147  0.007193656    -4.732936     468.1944 
  391300    190.20803    18.607205      2204118          147  0.007193656    3.0939551    453.27132 
  391400    200.73132    19.027682      2204118          147  0.007193656    2.0780151    477.16151 
  391500    207.58629    18.700021      2204118          147  0.007193656   -2.9443885    488.36321 
  391600     199.8418    18.624902      2204118          147  0.007193656  -0.80553952    472.17268 
  391700    197.14469    18.468624      2204118          147  0.007193656   -1.1918177    465.40298 
  391800    199.98608     18.33143      2204118          147  0.007193656   -3.3165546    470.00313 
  391900    201.12315    18.296647      2204118          147  0.007193656     -4.07292    471.93794 
  392000     199.6286    18.512732      2204118          147  0.007193656   -2.0264853    470.44713 
  392100    200.12051      18.3599      2204118          147  0.007193656   -3.4243356    470.21351 
  392200    198.74453    18.786189      2204118          147  0.007193656   0.47742514    470.85866 
  392300    201.40955    18.489013      2204118          147  0.007193656   -2.3085525    474.38016 
  392400    200.78218    18.168881      2204118          147  0.007193656   -3.9189984    471.28486 
  392500    188.95211    17.726387      2204118          147  0.007193656   -2.3918575    444.81305 
  392600    194.23401    17.437116      2204118          147  0.007193656   -5.6979396    454.00796 
  392700    207.27191    17.212723      2204118          147  0.007193656    -11.43545    479.12808 
  392800     201.5355    17.472511      2204118          147  0.007193656    -7.117199    469.86959 
  392900    195.97179    16.967431      2204118          147  0.007193656    -8.786883    455.03193 
  393000    197.05854    16.936951      2204118          147  0.007193656   -9.6001864    456.79072 
  393100    208.35797    18.692065      2204118          147  0.007193656   -1.0512276    492.08274 
  393200    206.64336    19.261791      2204118          147  0.007193656    3.4936327    492.56954 
  393300    197.27143    18.131214      2204118          147  0.007193656   -1.4709589    465.42381 
  393400    195.49951    17.697715      2204118          147  0.007193656   -3.6854774    459.01556 
  393500    202.09899    17.392637      2204118          147  0.007193656   -8.1661441    470.15431 
  393600    203.34518    17.947379      2204118          147  0.007193656   -4.4957224    476.77417 
  393700    199.91566    17.679793      2204118          147  0.007193656   -5.5116271     467.6414 
  393800    194.62198    17.084093      2204118          147  0.007193656   -8.3095649    452.31457 
  393900    195.25683    17.817203      2204118          147  0.007193656   -3.3261802    458.80049 
  394000    205.40059    18.651169      2204118          147  0.007193656  -0.91428677    485.22027 
  394100    205.20271    18.721808      2204118          147  0.007193656  -0.35009955    485.31612 
  394200    195.35897    18.050211      2204118          147  0.007193656   -1.8431244    460.52529 
  394300    193.76669    17.510666      2204118          147  0.007193656     -5.60133    452.99854 
  394400    202.89969    18.148411      2204118          147  0.007193656   -4.4564834    475.75904 
  394500    222.58752    18.975406      2204118          147  0.007193656   -5.7003774    521.11157 
  394600    213.73529    18.586879      2204118          147  0.007193656   -5.6703511    500.19046 
  394700     198.3243    18.676223      2204118          147  0.007193656    0.2022624    469.58891 
  394800    193.48033    18.300807      2204118          147  0.007193656  -0.86993028    457.05218 
  394900    202.76092    17.646568      2204118          147  0.007193656    -8.876963    471.01013 
  395000     204.7947    18.196439      2204118          147  0.007193656   -5.3982534    479.30229 
  395100     195.8251    18.697569      2204118          147  0.007193656    1.4019405    464.87357 
  395200    190.53364    18.823717      2204118          147  0.007193656    4.6300344    455.57803 
  395300    208.00527    18.444548      2204118          147  0.007193656    -3.531852    488.76736 
  395400    210.54663    17.311498      2204118          147  0.007193656   -11.893801    486.42021 
  395500    199.44822     16.75858      2204118          147  0.007193656   -11.407007    460.63969 
  395600     196.6645    16.781327      2204118          147  0.007193656   -10.101609    455.35668 
  395700     199.7856    17.391022      2204118          147  0.007193656   -6.6730581    466.17214 
  395800    208.25176    18.090159      2204118          147  0.007193656   -4.5091528    488.37343 
  395900    207.24168    18.550871      2204118          147  0.007193656  -0.72393186    489.76805 
  396000     192.2247    17.620952      2204118          147  0.007193656   -2.0051703    452.94518 
  396100     195.0238     17.26643      2204118          147  0.007193656   -5.3975513    456.17759 
  396200    203.55417     17.98764      2204118          147  0.007193656   -3.0164843    478.74802 
  396300    204.82296    18.139636      2204118          147  0.007193656     -2.26011    482.50733 
  396400    197.80922    17.451262      2204118          147  0.007193656   -4.6592906    463.50829 
  396500    186.16479    16.283115      2204118          147  0.007193656   -8.9521633     431.6558 
  396600    180.68586    15.838622      2204118          147  0.007193656   -10.156251    417.48438 
  396700    200.47021    16.636413      2204118          147  0.007193656   -11.553213     462.9123 
  396800    204.72205    17.001604      2204118          147  0.007193656   -10.817662    473.71094 
  396900    199.15661    17.243501      2204118          147  0.007193656   -7.8124037    463.54412 
  397000    193.09948    17.710684      2204118          147  0.007193656   -2.8627391      454.158 
  397100    201.59857    18.171693      2204118          147  0.007193656   -3.0152548    474.12082 
  397200    208.58823    18.573956      2204118          147  0.007193656   -2.7953066    490.88364 
  397300    200.06051    18.123531      2204118          147  0.007193656   -3.1718448      470.324 
  397400    193.42098    18.213353      2204118          147  0.007193656 -0.016199533    457.76547 
  397500    199.20303    17.804354      2204118          147  0.007193656   -4.8964557    466.56993 
  397600     203.1621    17.652714      2204118          147  0.007193656   -7.1069435    473.72964 
  397700    200.40973    17.398887      2204118          147  0.007193656   -7.9149169    466.40745 
  397800    189.79614    17.229376      2204118          147  0.007193656   -5.1393568    444.06316 
  397900    196.21597    16.654433      2204118          147  0.007193656   -11.434988    452.96173 
  398000    209.28582    17.189981      2204118          147  0.007193656   -11.942513    483.38747 
  398100       201.97    17.538864      2204118          147  0.007193656   -7.1193909    470.89576 
  398200    194.88264    18.083025      2204118          147  0.007193656   -1.1022542    460.13881 
  398300    199.24154    18.305313      2204118          147  0.007193656   -1.3788244    470.17871 
  398400     204.9717    18.207882      2204118          147  0.007193656   -4.3848772    480.73458 
  398500    194.87921    18.149892      2204118          147  0.007193656   -1.3238249    459.90913 
  398600    185.82875    17.160321      2204118          147  0.007193656   -5.5340241    434.27861 
  398700    198.48443    17.711483      2204118          147  0.007193656   -6.2684914    463.49715 
  398800    201.54202    19.314598      2204118          147  0.007193656    4.1423052    481.14454 
  398900    202.63518    19.801271      2204118          147  0.007193656    7.1245555    486.71404 
  399000    201.22251    19.000809      2204118          147  0.007193656    1.8629976    478.10902 
  399100    191.03376    17.661889      2204118          147  0.007193656   -3.9305453    448.20112 
  399200    193.71523    17.406582      2204118          147  0.007193656   -6.2097344    452.26835 
  399300    205.55917     17.63753      2204118          147  0.007193656   -8.3525106    478.15736 
  399400    203.27733    17.739828      2204118          147  0.007193656   -6.4991068    474.61019 
  399500    199.56245    17.238943      2204118          147  0.007193656   -8.8392521    463.47781 
  399600    196.51375     17.11161      2204118          147  0.007193656   -8.8481704    456.25334 
  399700    199.26754    17.912321      2204118          147  0.007193656   -4.2984105    467.32068 
  399800    210.43184    19.289876      2204118          147  0.007193656     1.529634    499.57196 
  399900    205.24349    18.775728      2204118          147  0.007193656  -0.44914507    485.31359 
  400000    196.62464    18.104747      2204118          147  0.007193656   -1.9070219    463.45694 
  400100    199.21272    17.527917      2204118          147  0.007193656   -6.3527422    465.13659 
Loop time of 24.0598 on 1 procs for 400000 steps with 795 atoms

Performance: 359.106 ns/day, 0.067 hours/ns, 16625.266 timesteps/s
96.1% CPU use with 1 MPI tasks x no OpenMP threads

MPI task timing breakdown:
Section |  min time  |  avg time  |  max time  |%varavg| %total
---------------------------------------------------------------
Pair    | 11.943     | 11.943     | 11.943     |   0.0 | 49.64
Neigh   | 2.7556     | 2.7556     | 2.7556     |   0.0 | 11.45
Comm    | 0.7963     | 0.7963     | 0.7963     |   0.0 |  3.31
Output  | 1.6672     | 1.6672     | 1.6672     |   0.0 |  6.93
Modify  | 6.2732     | 6.2732     | 6.2732     |   0.0 | 26.07
Other   |            | 0.6245     |            |       |  2.60

Nlocal:            795 ave         795 max         795 min
Histogram: 1 0 0 0 0 0 0 0 0 0
Nghost:            152 ave         152 max         152 min
Histogram: 1 0 0 0 0 0 0 0 0 0
Neighs:           1566 ave        1566 max        1566 min
Histogram: 1 0 0 0 0 0 0 0 0 0

Total # of neighbors = 1566
Ave neighs/atom = 1.9698113
Neighbor list builds = 7822
Dangerous builds = 11

write_data graphene_single_layer_LJ_795C_after_temp_200K.data
System init for write_data ...
  generated 0 of 0 mixed pair_coeff terms from geometric mixing rule
Total wall time: 0:00:24
