# System definition
read_data graphene_single_layer_x-45_y-45_795_C.data
Reading data file ...
  orthogonal box = (-51 -51 -51) to (96 96 51)
  1 by 1 by 1 MPI processor grid
  reading atoms ...
  795 atoms
  read_data CPU = 0.023 seconds
pair_style lj/cut 6
pair_coeff      1 1 0.066047 3.4

# Virtual force wall to keep the cylinder shape
#region myCylinder cylinder z 0. 0. 20.3 -22.079997 505.920003 units box
#fix wall all wall/region myCylinder lj93 1.0 1.0 2.5

# Minimization
timestep 0.25
thermo 100
thermo_style custom step temp press vol lx density pe etotal
dump 2 all custom 1000 graphene_single_layer_LJ_795C_after.lammpstrj id type x y z
min_style cg
minimize 1.0e-6 1.0e-6 100 1000
WARNING: Using 'neigh_modify every 1 delay 0 check yes' setting during minimization (../min.cpp:187)
  generated 0 of 0 mixed pair_coeff terms from geometric mixing rule
Neighbor list info ...
  update every 1 steps, delay 0 steps, check yes
  max neighbors/atom: 10000, page size: 100000
  master list distance cutoff = 6.4
  ghost atom cutoff = 6.4
  binsize = 3.2, bins = 46 46 32
  1 neighbor lists, perpetual/occasional/extra = 1 0 0
  (1) pair lj/cut, perpetual
      attributes: half, newton on
      pair build: half/bin/atomonly/newton
      stencil: half/bin/3d
      bin: standard
Per MPI rank memory allocation (min/avg/max) = 5.96 | 5.96 | 5.96 Mbytes
Step Temp Press Volume Lx Density PotEng TotEng 
       0            0    1335313.5      2204118          147  0.007193656     10699602     10699602 
     100            0     61841.43      2204118          147  0.007193656    488621.59    488621.59 
Loop time of 0.146911 on 1 procs for 100 steps with 795 atoms

99.3% CPU use with 1 MPI tasks x no OpenMP threads

Minimization stats:
  Stopping criterion = max iterations
  Energy initial, next-to-last, final = 
      10699602.3573369   495470.853828546   488621.590421788
  Force two-norm initial, final = 694694.42 29375.63
  Force max component initial, final = 79169.705 9280.0147
  Final line search alpha, max atom move = 3.8811533e-05 0.36017159
  Iterations, force evaluations = 100 117

MPI task timing breakdown:
Section |  min time  |  avg time  |  max time  |%varavg| %total
---------------------------------------------------------------
Pair    | 0.097099   | 0.097099   | 0.097099   |   0.0 | 66.09
Neigh   | 0.041618   | 0.041618   | 0.041618   |   0.0 | 28.33
Comm    | 0.0007922  | 0.0007922  | 0.0007922  |   0.0 |  0.54
Output  | 0.0001254  | 0.0001254  | 0.0001254  |   0.0 |  0.09
Modify  | 0          | 0          | 0          |   0.0 |  0.00
Other   |            | 0.007277   |            |       |  4.95

Nlocal:            795 ave         795 max         795 min
Histogram: 1 0 0 0 0 0 0 0 0 0
Nghost:              0 ave           0 max           0 min
Histogram: 1 0 0 0 0 0 0 0 0 0
Neighs:          13073 ave       13073 max       13073 min
Histogram: 1 0 0 0 0 0 0 0 0 0

Total # of neighbors = 13073
Ave neighs/atom = 16.444025
Neighbor list builds = 35
Dangerous builds = 0
#timestep 0.25
fix 1 all nvt temp 50.0 50.0 $(100.0*dt)
fix 1 all nvt temp 50.0 50.0 25
run 400000
  generated 0 of 0 mixed pair_coeff terms from geometric mixing rule
Per MPI rank memory allocation (min/avg/max) = 4.835 | 4.835 | 4.835 Mbytes
Step Temp Press Volume Lx Density PotEng TotEng 
     100            0     61841.43      2204118          147  0.007193656    488621.59    488621.59 
     200    5356.0978    32563.545      2204118          147  0.007193656    253385.97    266062.58 
     300    2719.3244    21856.822      2204118          147  0.007193656    169462.09    175898.09 
     400    1779.5763    16206.657      2204118          147  0.007193656    125108.09    129319.93 
     500    1242.1283    12735.931      2204118          147  0.007193656    97910.335    100850.16 
     600     936.0839     10434.83      2204118          147  0.007193656    79900.563    82116.052 
     700    741.45888    8781.5029      2204118          147  0.007193656    66978.326    68733.184 
     800    605.14054    7537.1249      2204118          147  0.007193656     57268.04    58700.264 
     900    505.61677    6570.0425      2204118          147  0.007193656    49733.356    50930.031 
    1000    430.54261    5798.2718      2204118          147  0.007193656    43729.427     44748.42 
    1100    371.77124    5169.9591      2204118          147  0.007193656    38848.953    39728.848 
    1200    325.05466    4650.1319      2204118          147  0.007193656    34817.144    35586.471 
    1300     287.5011    4213.5477      2204118          147  0.007193656    31436.084    32116.531 
    1400    256.79031    3841.9693      2204118          147  0.007193656    28562.676    29170.438 
    1500    231.27356    3522.1779      2204118          147  0.007193656     26093.27     26640.64 
    1600    209.82593    3244.3063      2204118          147  0.007193656    23950.663    24447.271 
    1700    191.60632    3000.8071      2204118          147  0.007193656    22075.754    22529.241 
    1800    175.98628    2785.8429      2204118          147  0.007193656    20422.974    20839.491 
    1900    162.49313     2594.794      2204118          147  0.007193656     18956.14    19340.723 
    2000    150.76579    2423.9671      2204118          147  0.007193656    17646.408    18003.235 
    2100    140.51749    2270.3722      2204118          147  0.007193656    16470.486    16803.058 
    2200    131.49398    2131.5637      2204118          147  0.007193656    15409.204    15720.419 
    2300    123.45314    2005.6037      2204118          147  0.007193656    14447.531    14739.715 
    2400    116.23794    1890.9248      2204118          147  0.007193656    13573.252     13848.36 
    2500    109.76287    1786.1903      2204118          147  0.007193656    12775.957     13035.74 
    2600    103.95498     1690.228      2204118          147  0.007193656    12046.479    12292.516 
    2700     98.73727    1602.0301      2204118          147  0.007193656    11377.017    11610.705 
    2800    94.057724    1520.7123      2204118          147  0.007193656    10760.683    10983.296 
    2900    89.862902    1445.4907      2204118          147  0.007193656    10191.365     10404.05 
    3000    86.078919    1375.6971      2204118          147  0.007193656    9663.8527    9867.5811 
    3100    82.650714    1310.7787      2204118          147  0.007193656    9173.9214    9369.5361 
    3200    79.540315    1250.2486      2204118          147  0.007193656    8717.7619     8906.015 
    3300    76.714569    1193.6831      2204118          147  0.007193656    8292.0837     8473.649 
    3400     74.14446     1140.713      2204118          147  0.007193656    7894.0414    8069.5238 
    3500    71.804891     1091.012      2204118          147  0.007193656    7521.1107    7691.0558 
    3600    69.674135     1044.295      2204118          147  0.007193656     7171.118    7336.0202 
    3700    67.732411    1000.2986      2204118          147  0.007193656    6841.9617    7002.2682 
    3800    65.963328     958.7983      2204118          147  0.007193656    6531.9342    6688.0538 
    3900    64.352494    919.59376      2204118          147  0.007193656    6239.5226    6391.8297 
    4000    62.886444    882.49858      2204118          147  0.007193656    5963.2586    6112.0959 
    4100    61.553597    847.34875      2204118          147  0.007193656    5701.8835    5847.5662 
    4200    60.343077    813.99651      2204118          147  0.007193656    5454.2639    5597.0817 
    4300    59.244093     782.3044      2204118          147  0.007193656    5219.3061    5359.5228 
    4400    58.247397    752.15795      2204118          147  0.007193656     4996.179    5134.0368 
    4500    57.344864    723.45323      2204118          147  0.007193656    4784.1223     4919.844 
    4600    56.527656    696.08164      2204118          147  0.007193656    4582.2051    4715.9927 
    4700     55.78879    669.95822      2204118          147  0.007193656    4389.8061     4521.845 
    4800    55.121932    645.00353      2204118          147  0.007193656    4206.3234     4336.784 
    4900    54.521342    621.14878      2204118          147  0.007193656    4031.2682    4160.3073 
    5000     53.98071    598.31896      2204118          147  0.007193656    3863.9915    3991.7511 
    5100    53.495193    576.45492      2204118          147  0.007193656    3704.0571    3830.6675 
    5200    53.059613    555.50218      2204118          147  0.007193656    3551.0611    3676.6407 
    5300    52.669981    535.40771      2204118          147  0.007193656    3404.5825    3529.2398 
    5400    52.321875    516.12668      2204118          147  0.007193656       3264.3    3388.1335 
    5500    52.011691    497.61582      2204118          147  0.007193656    3129.8857     3252.985 
    5600    51.735215    479.82972      2204118          147  0.007193656    3000.9457    3123.3907 
    5700    51.489611    462.73666      2204118          147  0.007193656     2877.286    2999.1497 
    5800    51.271555    446.30048      2204118          147  0.007193656    2758.6157    2879.9634 
    5900    51.078614    430.49609      2204118          147  0.007193656    2644.8062    2765.6972 
    6000    50.908043    415.27305      2204118          147  0.007193656    2535.2878    2655.7751 
    6100    50.756868     400.6234      2204118          147  0.007193656    2430.1787    2550.3082 
    6200    50.624375    386.51323      2204118          147  0.007193656     2329.149    2448.9649 
    6300    50.508077     372.9113      2204118          147  0.007193656       2231.9    2351.4406 
    6400    50.405724    359.80634      2204118          147  0.007193656    2138.4492    2257.7476 
    6500    50.314987    347.16815      2204118          147  0.007193656    2048.4813    2167.5649 
    6600    50.232209    334.98796      2204118          147  0.007193656    1962.0157    2080.9034 
    6700    50.154242    323.24673      2204118          147  0.007193656    1878.8679    1997.5711 
    6800    50.076584    311.92444      2204118          147  0.007193656    1798.7975    1917.3169 
    6900    49.999493    301.02694      2204118          147  0.007193656     1721.958    1840.2949 
    7000    49.930811    290.54627      2204118          147  0.007193656    1648.2686    1766.4431 
    7100    49.884522    280.47181      2204118          147  0.007193656    1577.6591    1695.7239 
    7200    49.881484    270.77864      2204118          147  0.007193656    1509.9512    1628.0089 
    7300    49.909061    261.42342      2204118          147  0.007193656    1444.7716    1562.8945 
    7400    49.901955    252.38732      2204118          147  0.007193656    1382.0455    1500.1516 
    7500    49.840624    243.65228      2204118          147  0.007193656    1321.5042    1439.4652 
    7600    49.788651    235.23621      2204118          147  0.007193656    1263.4199    1381.2578 
    7700     49.79114    227.11963      2204118          147  0.007193656    1207.5439    1325.3877 
    7800     49.81387    219.28494      2204118          147  0.007193656    1153.7521    1271.6497 
    7900    49.807509    211.71776      2204118          147  0.007193656    1101.9475    1219.8301 
    8000    49.778317    204.42353      2204118          147  0.007193656    1052.2851    1170.0986 
    8100    49.764177    197.37567      2204118          147  0.007193656    1004.3682    1122.1482 
    8200    49.773877    190.57284      2204118          147  0.007193656    958.25696    1076.0599 
    8300    49.782666    184.00402      2204118          147  0.007193656    913.87183    1031.6956 
    8400    49.775068    177.65765      2204118          147  0.007193656     871.1023     988.9081 
    8500    49.764979    171.52172      2204118          147  0.007193656    829.80601    947.58793 
    8600    49.769088    165.60794      2204118          147  0.007193656     790.2402    908.03185 
    8700    49.780711    159.89189      2204118          147  0.007193656    752.07881    869.89796 
    8800     49.78381    154.38452      2204118          147  0.007193656    715.58008    833.40657 
    8900     49.77877    149.05056      2204118          147  0.007193656    680.21289    798.02746 
    9000    49.778743     143.9045      2204118          147  0.007193656    646.26696    764.08145 
    9100    49.788409    138.93047      2204118          147  0.007193656    613.53731    731.37469 
    9200    49.796745    134.12362      2204118          147  0.007193656    582.01063    699.86773 
    9300    49.796943    129.47295      2204118          147  0.007193656    551.55982    669.41739 
    9400    49.796206    124.98409      2204118          147  0.007193656     522.3215    640.17733 
    9500    49.803123    120.65424      2204118          147  0.007193656    494.29375    612.16595 
    9600    49.812929    116.46439      2204118          147  0.007193656    467.21508    585.11049 
    9700    49.816752    112.41322      2204118          147  0.007193656    441.11638    559.02084 
    9800    49.816729    108.50225      2204118          147  0.007193656    416.06362    533.96802 
    9900     49.82111      104.723      2204118          147  0.007193656    391.95254     509.8673 
   10000    49.830107    101.06815      2204118          147  0.007193656    368.70502    486.64108 
   10100    49.836685    97.537969      2204118          147  0.007193656    346.37182    464.32345 
   10200    49.838365    94.127204      2204118          147  0.007193656    324.90479     442.8604 
   10300    49.840588    90.828513      2204118          147  0.007193656    304.21433     422.1752 
   10400    49.847476    87.641557      2204118          147  0.007193656    284.32871    402.30588 
   10500     49.85507    84.559687      2204118          147  0.007193656    265.17632    383.17147 
   10600    49.858321    81.579085      2204118          147  0.007193656    246.73062    364.73345 
   10700    49.859875     78.69947      2204118          147  0.007193656    229.01576    347.02228 
   10800    49.864949    75.919119      2204118          147  0.007193656    212.03002    330.04854 
   10900    49.872246    73.233044      2204118          147  0.007193656    195.72233    313.75813 
   11000    49.876684    70.633267      2204118          147  0.007193656    179.99299    298.03929 
   11100    49.878183    68.124904      2204118          147  0.007193656     164.9545    283.00435 
   11200    49.881468     65.69753      2204118          147  0.007193656    150.45683    268.51446 
   11300    49.887594    63.353342      2204118          147  0.007193656    136.56279    254.63492 
   11400    49.893031     61.08781      2204118          147  0.007193656    123.22528    241.31027 
   11500    49.894935    58.897239      2204118          147  0.007193656    110.40837    228.49786 
   11600    49.896427      56.7849      2204118          147  0.007193656    98.186229    216.27925 
   11700    49.901026    54.740349      2204118          147  0.007193656    86.404583     204.5085 
   11800    49.906237    52.761686      2204118          147  0.007193656    75.055337    193.17158 
   11900    49.908906    50.854175      2204118          147  0.007193656     64.24854     182.3711 
   12000    49.909793    49.006161      2204118          147  0.007193656    53.808242     171.9329 
   12100     49.91229    47.221422      2204118          147  0.007193656    43.812844    161.94341 
   12200    49.917016    45.502605      2204118          147  0.007193656    34.323585    152.46534 
   12300    49.920634    43.837051      2204118          147  0.007193656    25.148901    143.29922 
   12400    49.921157    42.231707      2204118          147  0.007193656    16.421012    134.57257 
   12500    49.921966    40.681028      2204118          147  0.007193656    8.0600433    126.21351 
   12600    49.926255    39.193012      2204118          147  0.007193656   0.21304253    118.37666 
   12700      49.9317    37.754375      2204118          147  0.007193656   -7.3207386    110.85577 
   12800    49.934214    36.362843      2204118          147  0.007193656   -14.555847    103.62661 
   12900    49.935223    35.022405      2204118          147  0.007193656   -21.406647      96.7782 
   13000    49.938191    33.726102      2204118          147  0.007193656   -27.972449    90.219422 
   13100    49.942335    32.476302      2204118          147  0.007193656   -34.197923    84.003756 
   13200    49.944028     31.26547      2204118          147  0.007193656   -40.194121    78.011565 
   13300     49.94416    30.103023      2204118          147  0.007193656   -45.793845    72.412154 
   13400    49.946046    28.968897      2204118          147  0.007193656   -51.319985    66.890479 
   13500    49.950327    27.878879      2204118          147  0.007193656   -56.496163    61.724432 
   13600    49.953279    26.825408      2204118          147  0.007193656    -61.43394    56.793641 
   13700     49.95226    25.809059      2204118          147  0.007193656   -66.114107    52.111062 
   13800    49.951802    24.832739      2204118          147  0.007193656   -70.485358    47.738729 
   13900    49.954767    23.890105      2204118          147  0.007193656   -74.646749    43.584354 
   14000    49.958829    22.979384      2204118          147  0.007193656   -78.614564    39.626154 
   14100    49.960251    22.097592      2204118          147  0.007193656   -82.422977    35.821105 
   14200    49.959596     21.24048      2204118          147  0.007193656    -86.13079    32.111743 
   14300    49.960871    20.414181      2204118          147  0.007193656    -89.62775    28.617799 
   14400    49.964714    19.616108      2204118          147  0.007193656   -92.947364     25.30728 
   14500    49.966608    18.841159      2204118          147  0.007193656   -96.162773    22.096356 
   14600    49.965497    18.091099      2204118          147  0.007193656   -99.237477    19.019021 
   14700    49.965049    17.366467      2204118          147  0.007193656   -102.15949    16.095948 
   14800    49.967744    16.670749      2204118          147  0.007193656   -104.86612    13.395702 
   14900    49.971016     15.99489      2204118          147  0.007193656   -107.49841    10.771154 
   15000    49.971387     15.34045      2204118          147  0.007193656   -110.01976    8.2506742 
   15100    49.970622    14.716299      2204118          147  0.007193656   -112.27606    5.9925727 
   15200    49.971921    14.102986      2204118          147  0.007193656   -114.58554    3.6861651 
   15300    49.974582    13.512459      2204118          147  0.007193656   -116.74105    1.5369511 
   15400    49.976248    12.946367      2204118          147  0.007193656    -118.7063   -0.4243535 
   15500    49.975475    12.390828      2204118          147  0.007193656   -120.70482   -2.4247061 
   15600    49.974715    11.851511      2204118          147  0.007193656   -122.63837   -4.3600571 
   15700    49.976925    11.336053      2204118          147  0.007193656   -124.37644   -6.0928935 
   15800     49.97967    10.832577      2204118          147  0.007193656   -126.10869   -7.8186425 
   15900    49.979793    10.348469      2204118          147  0.007193656    -127.7039   -9.4135662 
   16000    49.978557    9.8791439      2204118          147  0.007193656   -129.23375   -10.946345 
   16100    49.979302    9.4252218      2204118          147  0.007193656   -130.68484    -12.39567 
   16200    49.982114    8.9866423      2204118          147  0.007193656   -132.05255    -13.75672 
   16300    49.983617     8.563709      2204118          147  0.007193656    -133.3238   -15.024417 
   16400    49.982769    8.1578742      2204118          147  0.007193656   -134.46887   -16.171497 
   16500    49.981883    7.7632478      2204118          147  0.007193656   -135.58317   -17.287888 
   16600    49.983311    7.3830919      2204118          147  0.007193656   -136.60995   -18.311291 
   16700    49.985697    7.0164055      2204118          147  0.007193656   -137.56065   -19.256344 
   16800    49.985952    6.6616359      2204118          147  0.007193656   -138.45482    -20.14991 
   16900    49.984472    6.3199731      2204118          147  0.007193656   -139.26935   -20.967944 
   17000    49.984687    5.9896723      2204118          147  0.007193656    -140.0322   -21.730278 
   17100    49.987127    5.6729034      2204118          147  0.007193656   -140.70356    -22.39587 
   17200    49.988702    5.3665499      2204118          147  0.007193656   -141.32867   -23.017251 
   17300    49.987582    5.0711609      2204118          147  0.007193656   -141.89286   -23.584089 
   17400    49.986643    4.7864803      2204118          147  0.007193656   -142.39888   -24.092332 
   17500    49.988261    4.5117641      2204118          147  0.007193656   -142.85741   -24.547031 
   17600    49.990512    4.2476057      2204118          147  0.007193656   -143.25382   -24.938115 
   17700    49.990247    3.9925699      2204118          147  0.007193656   -143.60681   -25.291738 
   17800    49.988623    3.7474827      2204118          147  0.007193656   -143.90141   -25.590173 
   17900    49.988947    3.5107578      2204118          147  0.007193656   -144.16455   -25.852551 
   18000    49.991035     3.282693      2204118          147  0.007193656   -144.38884   -26.071896 
   18100    49.991976    3.0644225      2204118          147  0.007193656    -144.5506   -26.231433 
   18200    49.990979    2.8535864      2204118          147  0.007193656   -144.68597   -26.369164 
   18300    49.990279    2.6505486      2204118          147  0.007193656   -144.78795   -26.472794 
   18400    49.991815    2.4566159      2204118          147  0.007193656   -144.83328   -26.514489 
   18500    49.993636     2.269861      2204118          147  0.007193656   -144.84913    -26.52603 
   18600    49.993467    2.0908437      2204118          147  0.007193656   -144.82081   -26.498111 
   18700     49.99249    1.9192561      2204118          147  0.007193656   -144.75084   -26.430457 
   18800    49.993218    1.7543657      2204118          147  0.007193656   -144.65013   -26.328018 
   18900    49.995044    1.5953745      2204118          147  0.007193656   -144.52879   -26.202364 
   19000    49.995375    1.4434958      2204118          147  0.007193656   -144.36289   -26.035672 
   19100    49.993684    1.2961139      2204118          147  0.007193656   -144.19476   -25.871546 
   19200    49.992927    1.1553816      2204118          147  0.007193656   -143.99086   -25.669446 
   19300    49.994358     1.020875      2204118          147  0.007193656   -143.75958   -25.434772 
   19400    49.995578   0.89300446      2204118          147  0.007193656    -143.4925   -25.164802 
   19500    49.994497   0.77063575      2204118          147  0.007193656   -143.20641   -24.881276 
   19600    49.993245   0.65471142      2204118          147  0.007193656   -142.88528    -24.56311 
   19700    49.994773   0.54394391      2204118          147  0.007193656   -142.54838   -24.222591 
   19800    49.997745   0.43764624      2204118          147  0.007193656   -142.19915   -23.866329 
   19900    49.998751   0.33541032      2204118          147  0.007193656   -141.83365   -23.498452 
   20000    49.997652   0.23704461      2204118          147  0.007193656   -141.44782   -23.115218 
   20100    49.997378   0.14172866      2204118          147  0.007193656   -141.05313   -22.721171 
   20200    49.998864  0.049373838      2204118          147  0.007193656    -140.6509   -22.315434 
   20300    49.999164 -0.040939388      2204118          147  0.007193656   -140.25681   -21.920634 
   20400    49.996878  -0.12677771      2204118          147  0.007193656   -139.83453   -21.503758 
   20500    49.995043  -0.20749005      2204118          147  0.007193656   -139.38181   -21.055385 
   20600    49.995813  -0.28453924      2204118          147  0.007193656   -138.92975   -20.601499 
   20700    49.997569  -0.35677867      2204118          147  0.007193656   -138.46051   -20.128109 
   20800    49.997511  -0.42490116      2204118          147  0.007193656   -137.98303   -19.650758 
   20900    49.996478  -0.48816057      2204118          147  0.007193656   -137.48246   -19.152636 
   21000    49.997449  -0.54743082      2204118          147  0.007193656   -136.97073   -18.638605 
   21100    49.999986  -0.60277898      2204118          147  0.007193656   -136.44274    -18.10461 
   21200    50.000783   -0.6563739      2204118          147  0.007193656   -135.92663   -17.586621 
   21300    49.999166  -0.70653031      2204118          147  0.007193656   -135.39047   -17.054285 
   21400     49.99798  -0.75469994      2204118          147  0.007193656   -134.85994   -16.526557 
   21500    49.998887  -0.80116524      2204118          147  0.007193656   -134.34255   -16.007028 
   21600    49.999845  -0.84221818      2204118          147  0.007193656   -133.77767   -15.439873 
   21700    49.998479   -0.8822685      2204118          147  0.007193656   -133.23921   -14.904653 
   21800     49.99668  -0.91907369      2204118          147  0.007193656   -132.69225   -14.361947 
   21900    49.997745  -0.95260218      2204118          147  0.007193656   -132.13746   -13.804641 
   22000    50.000588    -0.983258      2204118          147  0.007193656   -131.57684   -13.237292 
   22100    50.001365     -1.01123      2204118          147  0.007193656   -131.00461    -12.66322 
   22200    50.000112   -1.0376493      2204118          147  0.007193656   -130.43306   -12.094639 
   22300    50.000247   -1.0619002      2204118          147  0.007193656   -129.84893   -11.510189 
   22400    50.002384   -1.0868441      2204118          147  0.007193656   -129.29687    -10.95307 
   22500    50.002855    -1.110629      2204118          147  0.007193656   -128.74284   -10.397924 
   22600    50.000394   -1.1335633      2204118          147  0.007193656   -128.19402   -9.8549232 
   22700    49.998377   -1.1550384      2204118          147  0.007193656    -127.6483   -9.3139843 
   22800    49.999297   -1.1739141      2204118          147  0.007193656   -127.09468    -8.758182 
   22900    50.000499   -1.1908385      2204118          147  0.007193656   -126.54681   -8.2074742 
   23000    49.999416   -1.2056518      2204118          147  0.007193656   -126.00324   -7.6664643 
   23100    49.997697   -1.2176592      2204118          147  0.007193656   -125.45502   -7.1223131 
   23200    49.998528   -1.2252694      2204118          147  0.007193656   -124.87756   -6.5428821 
   23300    50.001122    -1.232328      2204118          147  0.007193656   -124.33178    -5.990962 
   23400    50.001639   -1.2368071      2204118          147  0.007193656   -123.77688   -5.4348413 
   23500    50.000111   -1.2391546      2204118          147  0.007193656   -123.21543   -4.8770075 
   23600    50.000268   -1.2402034      2204118          147  0.007193656   -122.65915   -4.3203522 
   23700    50.002596   -1.2403368      2204118          147  0.007193656   -122.11005     -3.76575 
   23800    50.004087   -1.2395585      2204118          147  0.007193656   -121.56241   -3.2145806 
   23900    50.002282   -1.2390916      2204118          147  0.007193656   -121.03323   -2.6896709 
   24000    50.000164   -1.2377135      2204118          147  0.007193656   -120.50545   -2.1669051 
   24100    50.000615   -1.2365348      2204118          147  0.007193656   -120.00244    -1.662826 
   24200    50.002167   -1.2337801      2204118          147  0.007193656   -119.49685    -1.153557 
   24300    50.001877   -1.2298405      2204118          147  0.007193656   -118.99637  -0.65376798 
   24400     49.99943   -1.2244135      2204118          147  0.007193656   -118.49862  -0.16181401 
   24500    49.999241   -1.2156958      2204118          147  0.007193656   -117.97921   0.35715661 
   24600    50.001043   -1.2070971      2204118          147  0.007193656   -117.49544   0.84518595 
   24700    50.001786   -1.1957362      2204118          147  0.007193656   -116.99658    1.3458044 
   24800    50.000408   -1.1838055      2204118          147  0.007193656   -116.51703    1.8220905 
   24900    49.999318   -1.1703154      2204118          147  0.007193656   -116.04014    2.2964054 
   25000    50.000772   -1.1554037      2204118          147  0.007193656   -115.56705    2.7729393 
   25100    50.002851   -1.1394709      2204118          147  0.007193656   -115.09924    3.2456637 
   25200    50.002685   -1.1219744      2204118          147  0.007193656   -114.62161    3.7229053 
   25300    50.001173   -1.1052036      2204118          147  0.007193656   -114.16982    4.1711177 
   25400    50.001024   -1.0876485      2204118          147  0.007193656   -113.71887    4.6217162 
   25500    50.002805   -1.0693619      2204118          147  0.007193656   -113.26956    5.0752339 
   25600    50.003464   -1.0519556      2204118          147  0.007193656   -112.84713    5.4992291 
   25700    50.001074   -1.0337558      2204118          147  0.007193656   -112.42396     5.916738 
   25800    49.999376   -1.0128767      2204118          147  0.007193656   -111.97392    6.3627573 
   25900    50.000924  -0.99359201      2204118          147  0.007193656   -111.57229    6.7680571 
   26000    50.002394  -0.97335341      2204118          147  0.007193656   -111.17468    7.1691466 
   26100     50.00152  -0.95186273      2204118          147  0.007193656   -110.77325    7.5685076 
   26200    50.000432  -0.92981906      2204118          147  0.007193656   -110.37829     7.960887 
   26300    50.002461  -0.90604639      2204118          147  0.007193656   -109.96873    8.3752503 
   26400    50.004638  -0.88301594      2204118          147  0.007193656   -109.57947    8.7696643 
   26500    50.003558  -0.86153323      2204118          147  0.007193656   -109.21979     9.126792 
   26600    50.000931  -0.83986712      2204118          147  0.007193656   -108.86424    9.4761187 
   26700    49.999836  -0.81790027      2204118          147  0.007193656    -108.5173    9.8204721 
   26800    50.001539  -0.79524502      2204118          147  0.007193656   -108.17741    10.164396 
   26900    50.002755  -0.77185081      2204118          147  0.007193656   -107.84329     10.50139 
   27000     50.00144  -0.74779392      2204118          147  0.007193656   -107.51499    10.826577 
   27100    50.000134   -0.7245734      2204118          147  0.007193656   -107.21889    11.119581 
   27200    50.001304  -0.69859384      2204118          147  0.007193656   -106.89645    11.444796 
   27300    50.003359  -0.67255377      2204118          147  0.007193656   -106.59107    11.755037 
   27400    50.002575   -0.6465575      2204118          147  0.007193656   -106.30203    12.042224 
   27500    49.999759  -0.62092393      2204118          147  0.007193656   -106.03636     12.30123 
   27600    49.999314  -0.59226035      2204118          147  0.007193656   -105.74233    12.594208 
   27700    50.001729  -0.56349558      2204118          147  0.007193656   -105.46992    12.872327 
   27800    50.002724  -0.53276059      2204118          147  0.007193656   -105.18482    13.159786 
   27900    50.000171  -0.50266247      2204118          147  0.007193656   -104.92801    13.410552 
   28000    49.998383  -0.47056056      2204118          147  0.007193656   -104.65724    13.677093 
   28100    50.000794  -0.43757595      2204118          147  0.007193656   -104.39057    13.949469 
   28200    50.004015  -0.40583295      2204118          147  0.007193656   -104.15527    14.192393 
   28300    50.003619  -0.37311589      2204118          147  0.007193656   -103.90336    14.443365 
   28400    50.001978  -0.34215556      2204118          147  0.007193656    -103.6735    14.669345 
   28500    50.003365  -0.31245263      2204118          147  0.007193656   -103.45298    14.893145 
   28600    50.006215  -0.28596213      2204118          147  0.007193656   -103.26936    15.083514 
   28700    50.005516  -0.25966345      2204118          147  0.007193656   -103.07132     15.27989 
   28800     50.00091  -0.23628376      2204118          147  0.007193656   -102.91382    15.426495 
   28900    49.997914  -0.21233234      2204118          147  0.007193656   -102.75678    15.576445 
   29000    49.999752  -0.18652198      2204118          147  0.007193656    -102.5949    15.742673 
   29100    50.001922   -0.1607456      2204118          147  0.007193656    -102.4665    15.876208 
   29200    49.999965  -0.12964761      2204118          147  0.007193656   -102.28484     16.05324 
   29300    49.997175 -0.098054811      2204118          147  0.007193656   -102.13444    16.197032 
   29400    49.999024 -0.065472848      2204118          147  0.007193656   -102.00912    16.326728 
   29500    50.003274 -0.029426481      2204118          147  0.007193656   -101.86049    16.485414 
   29600    50.003995  0.008149184      2204118          147  0.007193656   -101.70895    16.638661 
   29700    50.001521  0.046594339      2204118          147  0.007193656   -101.55897    16.782785 
   29800    50.001163   0.08617897      2204118          147  0.007193656   -101.40519    16.935719 
   29900    50.003971   0.12519754      2204118          147  0.007193656    -101.2742    17.073362 
   30000    50.004561   0.16143689      2204118          147  0.007193656   -101.19791    17.151042 
   30100    50.001695   0.20003493      2204118          147  0.007193656   -101.09125    17.250917 
   30200    49.999214   0.23794338      2204118          147  0.007193656   -101.01066    17.325639 
   30300    50.000411   0.27870668      2204118          147  0.007193656   -100.90283    17.436304 
   30400    50.002786   0.31889628      2204118          147  0.007193656   -100.82556     17.51919 
   30500    50.001779   0.35847197      2204118          147  0.007193656   -100.77733    17.565042 
   30600     49.99863   0.40010544      2204118          147  0.007193656   -100.71459     17.62033 
   30700    49.998887   0.44291322      2204118          147  0.007193656   -100.65488    17.680646 
   30800    50.002896   0.48711604      2204118          147  0.007193656   -100.59194    17.753076 
   30900    50.004584   0.53211152      2204118          147  0.007193656   -100.52765     17.82136 
   31000     50.00108   0.57608182      2204118          147  0.007193656   -100.48751    17.853204 
   31100    49.997747   0.61982044      2204118          147  0.007193656   -100.46148     17.87135 
   31200    50.000029   0.66620709      2204118          147  0.007193656   -100.40664    17.931591 
   31300    50.003529   0.71317331      2204118          147  0.007193656   -100.35531    17.991202 
   31400    50.001212   0.76011646      2204118          147  0.007193656   -100.31274     18.02829 
   31500    49.997088   0.80664347      2204118          147  0.007193656   -100.28777    18.043499 
   31600    49.998067   0.85288424      2204118          147  0.007193656   -100.28016    18.053427 
   31700    50.003363   0.90485436      2204118          147  0.007193656   -100.18252    18.163602 
   31800    50.004733   0.95083021      2204118          147  0.007193656   -100.17439    18.174971 
   31900    50.000572    0.9960826      2204118          147  0.007193656   -100.15626    18.183257 
   32000    49.999897    1.0416238      2204118          147  0.007193656   -100.10844    18.229477 
   32100    50.004503    1.0808464      2204118          147  0.007193656   -100.13427    18.214544 
   32200    50.006231    1.1171861      2204118          147  0.007193656   -100.16481    18.188094 
   32300    50.003075    1.1512801      2204118          147  0.007193656   -100.18596    18.159476 
   32400     50.00032     1.181864      2204118          147  0.007193656   -100.22287    18.116044 
   32500    50.002237    1.2082912      2204118          147  0.007193656   -100.29127    18.052184 
   32600    50.005758    1.2342485      2204118          147  0.007193656   -100.33254    18.019243 
   32700     50.00346    1.2551527      2204118          147  0.007193656   -100.42699    17.919362 
   32800    49.996977    1.2733323      2204118          147  0.007193656   -100.55151    17.779494 
   32900    49.995097    1.2936256      2204118          147  0.007193656   -100.64938    17.677174 
   33000     49.99854     1.315947      2204118          147  0.007193656   -100.73904    17.595666 
   33100    49.999674     1.340986      2204118          147  0.007193656   -100.81546    17.521931 
   33200     49.99577     1.368964      2204118          147  0.007193656   -100.87612    17.452023 
   33300    49.995668    1.4004751      2204118          147  0.007193656   -100.91057    17.417337 
   33400    50.002318    1.4365347      2204118          147  0.007193656   -100.89267    17.450973 
   33500     50.00519    1.4696855      2204118          147  0.007193656   -100.93451    17.415933 
   33600    49.997267    1.5042717      2204118          147  0.007193656   -100.96231    17.369378 
   33700    49.990596    1.5417485      2204118          147  0.007193656   -100.96364    17.352266 
   33800    49.997289    1.5797566      2204118          147  0.007193656   -100.98348    17.348268 
   33900    50.007035    1.6191951      2204118          147  0.007193656   -100.99047    17.364339 
   34000    50.005043    1.6570529      2204118          147  0.007193656   -101.01479    17.335307 
   34100    49.994641    1.6942365      2204118          147  0.007193656   -101.03958    17.285893 
   34200    49.992401    1.7324115      2204118          147  0.007193656   -101.05358    17.266598 
   34300    49.999586    1.7731767      2204118          147  0.007193656   -101.04124    17.295939 
   34400    50.000612    1.8134439      2204118          147  0.007193656    -101.0519    17.287707 
   34500    49.991812    1.8565946      2204118          147  0.007193656   -101.02932    17.289465 
   34600    49.989268     1.903115      2204118          147  0.007193656   -100.96854    17.344216 
   34700      50.0018    1.9511772      2204118          147  0.007193656   -100.88222    17.460194 
   34800     50.01605    1.9934719      2204118          147  0.007193656   -100.84297    17.533173 
   34900    50.016404    2.0279289      2204118          147  0.007193656   -100.83245    17.544537 
   35000    50.006752    2.0501206      2204118          147  0.007193656   -100.90558    17.448555 
   35100    50.001481    2.0657293      2204118          147  0.007193656   -100.98934    17.352321 
   35200    50.002095     2.076726      2204118          147  0.007193656   -101.08825    17.254867 
   35300    49.998186     2.086875      2204118          147  0.007193656   -101.17579    17.158073 
   35400    49.989692    2.1009389      2204118          147  0.007193656   -101.20805    17.105715 
   35500    49.988273    2.1158123      2204118          147  0.007193656   -101.26213     17.04827 
   35600    49.997391    2.1348603      2204118          147  0.007193656   -101.28176    17.050227 
   35700    50.005148    2.1525607      2204118          147  0.007193656   -101.33591    17.014438 
   35800    50.002362     2.171963      2204118          147  0.007193656   -101.35106     16.99269 
   35900     49.99743    2.1894246      2204118          147  0.007193656   -101.37988    16.952201 
   36000    50.001371    2.2083674      2204118          147  0.007193656   -101.36215    16.979253 
   36100    50.008535    2.2200579      2204118          147  0.007193656   -101.43626    16.922101 
   36200    50.004077     2.231015      2204118          147  0.007193656   -101.49284    16.854966 
   36300    49.992125    2.2414341      2204118          147  0.007193656    -101.5476    16.771921 
   36400    49.991417    2.2544805      2204118          147  0.007193656   -101.57125    16.746595 
   36500    50.002406    2.2678781      2204118          147  0.007193656   -101.60406    16.739796 
   36600    50.005494    2.2821174      2204118          147  0.007193656   -101.62619    16.724972 
   36700    49.993563    2.2964606      2204118          147  0.007193656   -101.64905    16.673876 
   36800    49.986659    2.3116589      2204118          147  0.007193656   -101.67235    16.634234 
   36900    49.999575    2.3284528      2204118          147  0.007193656   -101.67963    16.657522 
   37000    50.015037    2.3434818      2204118          147  0.007193656   -101.69204    16.681713 
   37100    50.010232     2.354628      2204118          147  0.007193656   -101.71043    16.651944 
   37200    49.993814    2.3603061      2204118          147  0.007193656   -101.76172    16.561794 
   37300    49.992236     2.363241      2204118          147  0.007193656   -101.82545    16.494333 
   37400    50.005286    2.3667258      2204118          147  0.007193656   -101.85968    16.490989 
   37500    50.007584    2.3701181      2204118          147  0.007193656   -101.87189    16.484217 
   37600    49.993331    2.3737321      2204118          147  0.007193656   -101.86518    16.457193 
   37700    49.986889    2.3780191      2204118          147  0.007193656   -101.85738    16.449745 
   37800    49.999051    2.3812559      2204118          147  0.007193656   -101.89056    16.445356 
   37900    50.007047    2.3859906      2204118          147  0.007193656   -101.91609    16.438748 
   38000    49.993831    2.3965723      2204118          147  0.007193656   -101.86474    16.458824 
   38100    49.980723    2.4089618      2204118          147  0.007193656   -101.82671    16.465826 
   38200     49.99336    2.4264744      2204118          147  0.007193656   -101.75278    16.569669 
   38300    50.014465    2.4449502      2204118          147  0.007193656   -101.67996    16.692433 
   38400    50.006523    2.4634453      2204118          147  0.007193656   -101.59411    16.759492 
   38500    49.978306    2.4838739      2204118          147  0.007193656   -101.48208    16.804731 
   38600    49.976312    2.5093395      2204118          147  0.007193656   -101.32379    16.958307 
   38700    50.012667    2.5332333      2204118          147  0.007193656   -101.19428    17.173859 
   38800    50.043412    2.5489128      2204118          147  0.007193656   -101.09192    17.348987 
   38900    50.029621    2.5500092      2204118          147  0.007193656   -101.03704    17.371228 
   39000    49.988977     2.535998      2204118          147  0.007193656   -101.08128    17.230788 
   39100    49.972922    2.5179902      2204118          147  0.007193656   -101.15894     17.11513 
   39200    50.000611    2.5032888      2204118          147  0.007193656   -101.20532    17.134283 
   39300    50.029033    2.4864805      2204118          147  0.007193656   -101.27373    17.133143 
   39400    50.008847    2.4677825      2204118          147  0.007193656   -101.33516    17.023941 
   39500     49.96311    2.4531893      2204118          147  0.007193656   -101.35833    16.892524 
   39600    49.957285    2.4492956      2204118          147  0.007193656   -101.33555    16.901512 
   39700    49.996381     2.460733      2204118          147  0.007193656   -101.21105    17.118547 
   39800     50.01815    2.4797586      2204118          147  0.007193656   -101.03744    17.343681 
   39900    49.999494    2.4967618      2204118          147  0.007193656   -100.88679    17.450174 
   40000    49.993138    2.5130788      2204118          147  0.007193656   -100.68369    17.638227 
   40100     50.03164    2.5139339      2204118          147  0.007193656   -100.60776     17.80528 
   40200    50.065044     2.492085      2204118          147  0.007193656   -100.68506    17.807045 
   40300    50.023611    2.4518261      2204118          147  0.007193656   -100.85287    17.541173 
   40400    49.939742    2.4119837      2204118          147  0.007193656    -100.9873    17.208238 
   40500    49.925993    2.3899496      2204118          147  0.007193656   -101.01586     17.14714 
   40600    49.994054    2.3895655      2204118          147  0.007193656   -100.93156    17.392524 
   40700    50.047408    2.3972532      2204118          147  0.007193656    -100.8103    17.640062 
   40800    50.037265    2.3943371      2204118          147  0.007193656    -100.7629    17.663456 
   40900    49.970644    2.3908938      2204118          147  0.007193656   -100.66595    17.602731 
   41000     49.95265    2.3902767      2204118          147  0.007193656   -100.58933    17.636768 
   41100    50.054826     2.381237      2204118          147  0.007193656   -100.64558    17.822341 
   41200     50.06682    2.3726508      2204118          147  0.007193656   -100.67541    17.820901 
   41300    49.901496     2.382515      2204118          147  0.007193656   -100.56432    17.540702 
   41400    49.830466    2.4282883      2204118          147  0.007193656   -100.25993    17.676982 
   41500    50.005812    2.5031126      2204118          147  0.007193656   -99.851268    18.500647 
   41600    50.207439    2.5677562      2204118          147  0.007193656   -99.499522    19.329595 
   41700    50.128855    2.5879953      2204118          147  0.007193656   -99.373221    19.269908 
   41800    49.869692    2.5854089      2204118          147  0.007193656   -99.333666    18.696085 
   41900     49.80674    2.6041822      2204118          147  0.007193656    -99.20332    18.677439 
   42000    49.980189     2.670197      2204118          147  0.007193656   -98.835145    19.456125 
   42100    50.157587    2.7458477      2204118          147  0.007193656    -98.42893    20.282199 
   42200    50.179109    2.7700807      2204118          147  0.007193656   -98.319827    20.442241 
   42300    50.009134    2.7383909      2204118          147  0.007193656   -98.536111    19.823665 
   42400    49.808789    2.7134293      2204118          147  0.007193656   -98.655561    19.230047 
   42500    49.852448    2.7276155      2204118          147  0.007193656   -98.613006    19.375933 
   42600    50.091345    2.7756878      2204118          147  0.007193656   -98.367459    20.186891 
   42700    50.183923    2.8089011      2204118          147  0.007193656   -98.210593    20.562868 
   42800    50.010113    2.8133448      2204118          147  0.007193656   -98.112816    20.249277 
   42900    49.864133    2.7973138      2204118          147  0.007193656    -98.16461    19.851984 
   43000    49.989685    2.7795482      2204118          147  0.007193656   -98.269965    20.043781 
   43100    50.133158    2.7537112      2204118          147  0.007193656   -98.502185    20.151128 
   43200    50.024349    2.7328523      2204118          147  0.007193656   -98.547936    19.847852 
   43300    49.836113    2.7201863      2204118          147  0.007193656   -98.544159    19.406117 
   43400    49.894277    2.7340231      2204118          147  0.007193656   -98.413581    19.674356 
   43500    50.138406    2.7528332      2204118          147  0.007193656   -98.319688    20.346044 
   43600    50.210156    2.7393756      2204118          147  0.007193656   -98.397151    20.438398 
   43700    50.007982    2.6821221      2204118          147  0.007193656   -98.709357    19.647692 
   43800    49.743422    2.6473396      2204118          147  0.007193656    -98.85471     18.87619 
   43900    49.745861    2.6936834      2204118          147  0.007193656   -98.575137    19.161536 
   44000    50.057918    2.8086351      2204118          147  0.007193656   -97.925374    20.549864 
   44100    50.281143    2.9149639      2204118          147  0.007193656   -97.337448    21.666108 
   44200    50.140788    2.9559827      2204118          147  0.007193656   -97.064936    21.606435 
   44300    49.912981    2.9282994      2204118          147  0.007193656   -97.211361    20.920845 
   44400     49.88595    2.8846358      2204118          147  0.007193656   -97.514885    20.553344 
   44500    50.031084    2.8555347      2204118          147  0.007193656   -97.776779    20.634947 
   44600     50.08952    2.8405654      2204118          147  0.007193656   -97.911544    20.638487 
   44700    49.893867    2.8566963      2204118          147  0.007193656   -97.791051    20.295915 
   44800    49.730512    2.9413369      2204118          147  0.007193656   -97.178805    20.521539 
   44900    49.983845    3.0584982      2204118          147  0.007193656   -96.536786    21.763139 
   45000    50.365076    3.1430625      2204118          147  0.007193656   -96.156996    23.045212 
   45100    50.215885    3.1657158      2204118          147  0.007193656   -95.980864    22.868245 
   45200    49.742417    3.1501216      2204118          147  0.007193656   -95.940376    21.788146 
   45300    49.737817    3.1382197      2204118          147  0.007193656   -96.012905     21.70473 
   45400    50.207896    3.1355511      2204118          147  0.007193656   -96.150628    22.679573 
   45500     50.35272     3.107029      2204118          147  0.007193656   -96.352215    22.820749 
   45600    49.887522     3.052115      2204118          147  0.007193656   -96.584303    21.487647 
   45700    49.552927    3.0360832      2204118          147  0.007193656   -96.575166    20.704877 
   45800    49.901391    3.0836165      2204118          147  0.007193656   -96.398135    21.706641 
   45900    50.379788    3.1581887      2204118          147  0.007193656   -96.102085    23.134944 
   46000    50.166086    3.2212994      2204118          147  0.007193656   -95.685175     23.04607 
   46100    49.584296    3.3043754      2204118          147  0.007193656   -94.993672    22.360614 
   46200    49.665086    3.4314041      2204118          147  0.007193656   -94.223326     23.32217 
   46300    50.481229    3.5259768      2204118          147  0.007193656   -93.942005    25.535108 
   46400    50.777423    3.4849116      2204118          147  0.007193656   -94.409099    25.769037 
   46500    49.728383    3.3921342      2204118          147  0.007193656   -94.825264    22.870043 
   46600     48.91271    3.4085647      2204118          147  0.007193656   -94.627008    21.137793 
   46700    49.786938    3.5674689      2204118          147  0.007193656   -94.054958    23.778935 
   46800    51.085745    3.7387368      2204118          147  0.007193656   -93.593646    27.314215 
   46900    50.545957    3.8215998      2204118          147  0.007193656      -93.135    26.495311 
   47000    49.109701     3.851523      2204118          147  0.007193656   -92.738268    23.492764 
   47100    49.352669    3.8894776      2204118          147  0.007193656   -92.843896    23.962183 
   47200     50.80195    3.9400153      2204118          147  0.007193656   -93.295243    26.940943 
   47300    50.788173    3.9625746      2204118          147  0.007193656   -93.459093    26.744485 
   47400    49.258917    3.9869225      2204118          147  0.007193656   -93.106419    23.477772 
   47500    48.917679    4.0975669      2204118          147  0.007193656   -92.547844    23.228716 
   47600    50.498091    4.2655778      2204118          147  0.007193656    -92.21543    27.301593 
   47700    51.354541    4.3554384      2204118          147  0.007193656   -92.226031    29.318005 
   47800    49.869244    4.3429369      2204118          147  0.007193656   -92.131553    25.897139 
   47900    48.559606    4.3655948      2204118          147  0.007193656   -91.825683    23.103404 
   48000    49.620516    4.5135674      2204118          147  0.007193656   -91.427538    26.012473 
   48100    51.429501    4.6639704      2204118          147  0.007193656   -91.290148    30.431302 
   48200     50.93001    4.6538116      2204118          147  0.007193656   -91.473097    29.066174 
   48300    48.850299    4.5785922      2204118          147  0.007193656   -91.588813    24.028277 
   48400     48.51084    4.6687675      2204118          147  0.007193656   -91.157647    23.656023 
   48500    50.478494    4.9485587      2204118          147  0.007193656   -90.168385    29.302256 
   48600    51.652337    5.2009118      2204118          147  0.007193656   -89.071432    33.177417 
   48700    50.122273    5.2597149      2204118          147  0.007193656   -88.365933    30.261618 
   48800    48.644813    5.2169783      2204118          147  0.007193656   -88.298161    26.832592 
   48900    49.567076    5.2230778      2204118          147  0.007193656   -88.623512    28.690019 
   49000    51.406766    5.1953285      2204118          147  0.007193656   -89.498438    32.169202 
   49100    50.833573    5.0549717      2204118          147  0.007193656   -90.311739    29.999291 
   49200    48.565273    4.9622708      2204118          147  0.007193656   -90.187707    24.754793 
   49300    48.482216    5.0671426      2204118          147  0.007193656   -89.445836    25.300089 
   49400    50.934796    5.3061788      2204118          147  0.007193656   -88.639864    31.910737 
   49500    51.958752    5.4285558      2204118          147  0.007193656   -88.168924    34.805137 
   49600    49.778411    5.3276852      2204118          147  0.007193656   -88.115806    29.697905 
   49700    48.258516    5.1599478      2204118          147  0.007193656   -88.709367    25.507112 
   49800    49.685807    5.1053945      2204118          147  0.007193656   -89.510986    28.083552 
   49900    51.474038    5.1496462      2204118          147  0.007193656   -89.680089    32.146769 
   50000    50.624148    5.1119833      2204118          147  0.007193656   -89.578888     30.23648 
   50100    48.721141    5.0357982      2204118          147  0.007193656   -89.395617    25.915785 
   50200    48.890688    5.0899297      2204118          147  0.007193656   -89.018449    26.694231 
   50300    50.929905    5.2399735      2204118          147  0.007193656   -88.598189    31.940835 
   50400    51.444754    5.3025921      2204118          147  0.007193656   -88.270215    33.487333 
   50500    49.531696    5.2304563      2204118          147  0.007193656   -88.016197    29.213596 
   50600    48.506622    5.1674386      2204118          147  0.007193656   -87.969073    26.834615 
   50700    49.989505    5.2133139      2204118          147  0.007193656   -87.951066    30.362254 
   50800    51.481992    5.2683185      2204118          147  0.007193656   -87.846109    33.999574 
   50900    50.389347    5.2154632      2204118          147  0.007193656   -87.566075    31.693575 
   51000    48.650238    5.1352223      2204118          147  0.007193656   -87.217673    27.925919 
   51100    49.282472    5.1196758      2204118          147  0.007193656    -87.24485     29.39509 
   51200    51.301467    5.1110481      2204118          147  0.007193656   -87.667203    33.751219 
   51300    51.175409    4.9711693      2204118          147  0.007193656   -88.326144    32.793929 
   51400    48.963974    4.7791702      2204118          147  0.007193656   -88.683441    27.202691 
   51500    48.268427    4.7693721      2204118          147  0.007193656   -88.284795    25.955141 
   51600    50.249979    4.9738977      2204118          147  0.007193656   -87.308375    31.621425 
   51700     51.92219    5.1367862      2204118          147  0.007193656   -86.542783    36.344744 
   51800    50.569698    5.0369766      2204118          147  0.007193656   -86.570413    33.116087 
   51900     48.42402    4.8448068      2204118          147  0.007193656    -86.94189    27.666296 
   52000    48.848654    4.8007271      2204118          147  0.007193656     -87.1325    28.480696 
   52100    51.167117    4.8751455      2204118          147  0.007193656   -87.094605    34.005845 
   52200     51.57111    4.8330388      2204118          147  0.007193656   -87.315375    34.741229 
   52300    49.333042     4.661306      2204118          147  0.007193656    -87.51866    29.240967 
   52400    48.105899     4.600371      2204118          147  0.007193656   -87.338581    26.516691 
   52500    49.959082     4.718398      2204118          147  0.007193656   -86.965268    31.276049 
   52600    51.936678    4.8447501      2204118          147  0.007193656   -86.603677    36.318141 
   52700    50.580579    4.8155377      2204118          147  0.007193656   -86.163704    33.548549 
   52800    48.415216    4.6930113      2204118          147  0.007193656    -86.08564    28.501711 
   52900    49.046232    4.6444965      2204118          147  0.007193656   -86.449177    29.631639 
   53000    51.298988    4.6744015      2204118          147  0.007193656   -86.787168    34.625387 
   53100     51.27418    4.6222375      2204118          147  0.007193656   -86.927593     34.42625 
   53200    49.107892    4.4609052      2204118          147  0.007193656   -87.133821    29.092931 
   53300    48.519929    4.3639261      2204118          147  0.007193656   -87.416609    27.418573 
   53400    50.292482    4.4239939      2204118          147  0.007193656   -87.480578    31.549817 
   53500    51.339875    4.5600912      2204118          147  0.007193656   -86.766536    34.742789 
   53600    49.981687    4.6346472      2204118          147  0.007193656   -85.628575    32.666241 
   53700    48.831519    4.6533368      2204118          147  0.007193656   -84.971314    30.601328 
   53800    49.729936    4.7257688      2204118          147  0.007193656   -84.636151    33.062831 
   53900    51.190958    4.7888057      2204118          147  0.007193656   -84.493692    36.663182 
   54000     50.73266    4.7049795      2204118          147  0.007193656   -84.757178    35.315013 
   54100    49.037546    4.5685833      2204118          147  0.007193656   -84.893555    31.166704 
   54200    48.895336    4.5332798      2204118          147  0.007193656   -84.836898    30.886783 
   54300    50.632356    4.5784653      2204118          147  0.007193656   -84.857754    34.977043 
   54400    51.448212    4.5283379      2204118          147  0.007193656   -85.258145     36.50759 
   54500    49.766249    4.3688646      2204118          147  0.007193656   -85.628818    32.156109 
   54600    48.384095    4.2837772      2204118          147  0.007193656   -85.559703    28.953992 
   54700    49.612445    4.3577043      2204118          147  0.007193656   -85.274228    32.146681 
   54800    51.554823    4.4569402      2204118          147  0.007193656   -85.058084    36.959973 
   54900     50.89502    4.4070216      2204118          147  0.007193656   -85.005582    35.450878 
   55000    48.746069    4.2789064      2204118          147  0.007193656   -85.023234    30.347168 
   55100    48.691973    4.2589314      2204118          147  0.007193656   -84.994055    30.248314 
   55200    50.844611    4.3469851      2204118          147  0.007193656    -84.93502    35.402132 
   55300    51.586366    4.3701914      2204118          147  0.007193656   -84.847725    37.244987 
   55400    49.604913    4.2674011      2204118          147  0.007193656   -84.717962     32.68512 
   55500    48.363452    4.1875599      2204118          147  0.007193656   -84.676624    29.788214 
   55600    49.850214    4.2344094      2204118          147  0.007193656   -84.713713    33.269939 
   55700    51.495158    4.3453935      2204118          147  0.007193656   -84.312288    37.564555 
   55800    50.443215    4.3830092      2204118          147  0.007193656   -83.477392    35.909751 
   55900    48.799582    4.3329573      2204118          147  0.007193656   -83.076047    32.421006 
   56000    49.444044    4.2829963      2204118          147  0.007193656   -83.452977    33.569365 
   56100    50.997714    4.2880261      2204118          147  0.007193656   -83.757045    36.942466 
   56200    50.708981    4.2675611      2204118          147  0.007193656   -83.539592    36.476557 
   56300    49.192962    4.1985602      2204118          147  0.007193656   -83.260868    33.167223 
   56400    49.122257    4.1725807      2204118          147  0.007193656   -83.119717    33.141033 
   56500    50.578055    4.1906044      2204118          147  0.007193656   -83.269087    36.437191 
   56600    51.022144    4.1737215      2204118          147  0.007193656   -83.298247    37.459084 
   56700    49.696371    4.0831834      2204118          147  0.007193656   -83.185138    34.434403 
   56800    48.932246    4.0051598      2204118          147  0.007193656   -83.118584    32.692454 
   56900    50.019876    3.9812286      2204118          147  0.007193656   -83.321623    35.063578 
   57000    51.130296    3.9416504      2204118          147  0.007193656     -83.5864    37.426903 
   57100    50.330395     3.803165      2204118          147  0.007193656    -83.87998    35.240147 
   57200    48.980595    3.6415742      2204118          147  0.007193656   -84.206083    31.719386 
   57300    49.252385    3.6019627      2204118          147  0.007193656   -84.230265    32.338467 
   57400    50.720137    3.6506597      2204118          147  0.007193656   -84.111257    35.931295 
   57500    50.947939    3.6568062      2204118          147  0.007193656   -83.904137    36.677569 
   57600    49.541358    3.5950836      2204118          147  0.007193656   -83.674899    33.577764 
   57700    48.948956    3.5664056      2204118          147  0.007193656   -83.487244    32.363343 
   57800     50.22258    3.5890255      2204118          147  0.007193656   -83.596363    35.268592 
   57900    51.235361    3.5652001      2204118          147  0.007193656   -83.952221    37.309745 
   58000    50.094669    3.4599609      2204118          147  0.007193656    -84.19107    34.371148 
   58100    48.686387    3.4016838      2204118          147  0.007193656   -84.053872    31.175277 
   58200    49.359625    3.4950852      2204118          147  0.007193656   -83.600942      33.2216 
   58300    51.038265     3.676254      2204118          147  0.007193656   -82.921438    37.874048 
   58400     50.92247    3.7886543      2204118          147  0.007193656    -82.07224    38.449186 
   58500    49.393626    3.7646914      2204118          147  0.007193656   -81.697551    35.205465 
   58600    49.089296    3.7196748      2204118          147  0.007193656   -81.830093    34.352646 
   58700    50.366144    3.7262312      2204118          147  0.007193656   -82.107874     37.09686 
   58800    50.980386    3.7204087      2204118          147  0.007193656    -82.25256    38.405939 
   58900     49.73305     3.703599      2204118          147  0.007193656    -81.83683    35.869522 
   59000    48.738988    3.7825559      2204118          147  0.007193656   -80.813955    34.539687 
   59100    49.847134    3.9603394      2204118          147  0.007193656      -79.773     38.20336 
   59200    51.522202    4.0414279      2204118          147  0.007193656   -79.611866    42.328985 
   59300    50.894555    3.8807442      2204118          147  0.007193656   -80.299165    40.156194 
   59400    48.840376    3.6240956      2204118          147  0.007193656   -81.091665    34.501938 
   59500     48.67758    3.4863717      2204118          147  0.007193656   -81.662474    33.545831 
   59600     50.57651     3.506851      2204118          147  0.007193656   -81.834405    37.868218 
   59700    51.531692    3.4815901      2204118          147  0.007193656   -82.029423    39.933888 
   59800     49.87742    3.3296615      2204118          147  0.007193656   -82.286079    35.761962 
   59900    48.358296    3.2344212      2204118          147  0.007193656   -82.230422    32.222211 
   60000    49.593205    3.2758758      2204118          147  0.007193656   -82.168418    35.206954 
   60100    51.567282    3.3541338      2204118          147  0.007193656   -82.178803    39.868742 
   60200    50.716423    3.3647025      2204118          147  0.007193656   -81.745956    38.287806 
   60300    48.455888    3.3960475      2204118          147  0.007193656   -80.763377    33.920235 
   60400    48.869068    3.5285472      2204118          147  0.007193656    -79.95045    35.711062 
   60500    51.512589    3.6524213      2204118          147  0.007193656   -79.970843    41.947256 
   60600    51.634747    3.6399048      2204118          147  0.007193656   -80.073963    42.133256 
   60700    48.849972     3.534882      2204118          147  0.007193656   -79.893436    35.722879 
   60800    47.861915    3.5892396      2204118          147  0.007193656   -79.160446    34.117372 
   60900    50.430839    3.8131669      2204118          147  0.007193656   -78.445456    40.912398 
   61000    52.525105    3.9412013      2204118          147  0.007193656   -78.264652    46.049832 
   61100    50.388388    3.8145084      2204118          147  0.007193656   -78.368469    40.888911 
   61200    47.738378     3.644503      2204118          147  0.007193656   -78.544657    34.440779 
   61300    48.851759    3.6456182      2204118          147  0.007193656   -78.870311    36.750234 
   61400    51.953684    3.7462633      2204118          147  0.007193656   -79.154281    43.807786 
   61500    51.696096    3.7000686      2204118          147  0.007193656   -79.369437    42.982981 
   61600    48.511835    3.5415166      2204118          147  0.007193656   -79.446153    35.369873 
   61700    47.801095    3.5342524      2204118          147  0.007193656   -79.347465    33.786406 
   61800    50.648343    3.7468695      2204118          147  0.007193656   -78.943868    40.928765 
   61900    52.225751    4.0033104      2204118          147  0.007193656   -77.806677    45.799307 
   62000    49.740264    4.1555383      2204118          147  0.007193656   -75.897396    41.826029 
   62100    48.364448      4.09596      2204118          147  0.007193656   -75.848858    38.618337 
   62200    50.290959    3.9593252      2204118          147  0.007193656     -77.4288    41.597989 
   62300    51.589222    3.8502476      2204118          147  0.007193656   -78.600657    43.498813 
   62400    49.871061     3.724659      2204118          147  0.007193656   -78.930684    39.102307 
   62500    47.932306    3.7908737      2204118          147  0.007193656   -77.889395    35.555021 
   62600    49.585267    3.9794882      2204118          147  0.007193656   -77.291312    40.065273 
   62700    51.867898    4.2601124      2204118          147  0.007193656   -76.275482    46.483549 
   62800    50.849764    4.4191491      2204118          147  0.007193656   -74.952474    45.396875 
   62900    48.841895     4.350469      2204118          147  0.007193656   -74.842278    40.754921 
   63000    48.712695    4.3895143      2204118          147  0.007193656   -74.518731    40.772683 
   63100    50.959351    4.4518211      2204118          147  0.007193656   -74.825959    45.782756 
   63200    51.704856    4.4038575      2204118          147  0.007193656   -75.347692    47.025458 
   63300    49.422162     4.256847      2204118          147  0.007193656    -75.60033    41.370223 
   63400    47.971126    4.2323918      2204118          147  0.007193656   -75.303912    38.232381 
   63500    49.637922    4.4576011      2204118          147  0.007193656   -74.300007      43.1812 
   63600    51.937125    4.7288816      2204118          147  0.007193656   -73.179212    49.743663 
   63700    51.053234    4.7809944      2204118          147  0.007193656   -72.485283    48.345631 
   63800     48.40563    4.7391867      2204118          147  0.007193656   -71.692529    42.872134 
   63900    49.198628    4.5537858      2204118          147  0.007193656   -73.119522    43.321979 
   64000    51.419524    4.4197201      2204118          147  0.007193656   -74.615224    47.082613 
   64100    50.574054    4.3966141      2204118          147  0.007193656   -74.302464    45.394346 
   64200    48.750129    4.3484515      2204118          147  0.007193656   -73.944787    41.435224 
   64300    48.940576    4.4429007      2204118          147  0.007193656   -73.280237    42.550516 
   64400    50.738037    4.6869398      2204118          147  0.007193656   -72.205003    47.879914 
   64500    51.440601    4.8299307      2204118          147  0.007193656   -71.514175    50.233545 
   64600     49.89521    4.7804563      2204118          147  0.007193656   -71.396513    46.693634 
   64700    48.557267     4.740446      2204118          147  0.007193656   -71.214268    43.709284 
   64800     49.55315    4.8398817      2204118          147  0.007193656   -70.872647    46.407925 
   64900    51.384172    4.9644353      2204118          147  0.007193656   -70.662441    50.951726 
   65000    50.592207    5.0665342      2204118          147  0.007193656   -69.776439    49.963334 
   65100    48.708902     5.160024      2204118          147  0.007193656   -68.510912    46.771523 
   65200    49.017894    5.3591339      2204118          147  0.007193656   -67.205816    48.807932 
   65300    52.303248    5.1528495      2204118          147  0.007193656   -70.026604    53.762798 
   65400    49.815978    5.3897948      2204118          147  0.007193656   -67.575595    50.327027 
   65500    47.021622    5.8744633      2204118          147  0.007193656   -63.061061    48.227981 
   65600    52.127695    5.5452317      2204118          147  0.007193656   -67.300098    56.073811 
   65700    52.571848    5.4417599      2204118          147  0.007193656   -68.130994    56.294119 
   65800    48.006588      5.35882      2204118          147  0.007193656   -67.152654    46.467572 
   65900    47.245334     5.313678      2204118          147  0.007193656   -67.336727    44.481789 
   66000    50.777732    5.5871092      2204118          147  0.007193656   -66.730302    53.448565 
   66100     52.99128    5.8577612      2204118          147  0.007193656   -65.709994    59.707817 
   66200     49.77579    5.9585565      2204118          147  0.007193656   -64.028754    53.778754 
   66300    47.549325    5.9006007      2204118          147  0.007193656    -63.79218    48.745812 
   66400      49.5306    5.9780637      2204118          147  0.007193656    -63.95288    53.274321 
   66500    52.241421    6.1539578      2204118          147  0.007193656   -63.550577    60.092495 
   66600    51.705346    5.9243955      2204118          147  0.007193656   -65.096786    57.277523 
   66700    47.908407    5.7256454      2204118          147  0.007193656   -65.220638    48.167215 
   66800    47.793847    5.6444077      2204118          147  0.007193656   -65.946064    47.170652 
   66900    50.851859    5.9304735      2204118          147  0.007193656   -65.093937     55.26037 
   67000    52.665688    6.1093566      2204118          147  0.007193656   -64.689116    59.958096 
   67100    49.734495    6.1285151      2204118          147  0.007193656   -63.814411     53.89536 
   67200    47.755867    6.0244344      2204118          147  0.007193656   -64.316904    48.709925 
   67300    48.659736    6.4054337      2204118          147  0.007193656   -62.295392     52.87068 
   67400    51.544403    7.0089592      2204118          147  0.007193656   -59.467882    62.525513 
   67500    52.771052      7.17078      2204118          147  0.007193656   -59.272684      65.6239 
   67600    49.160745    7.1248785      2204118          147  0.007193656   -58.721735    57.630107 
   67700    46.622169    7.2939649      2204118          147  0.007193656   -56.877918    53.465716 
   67800    50.306254    7.4895608      2204118          147  0.007193656   -56.973297    62.089694 
   67900     53.93427    7.5788301      2204118          147  0.007193656   -57.867823    69.781821 
   68000    50.076284    7.5550664      2204118          147  0.007193656   -56.949745     61.56896 
   68100    46.097018     7.622291      2204118          147  0.007193656   -55.318602    53.782123 
   68200    49.085409    7.7899701      2204118          147  0.007193656   -55.391311    60.782228 
   68300    53.515626    8.1320719      2204118          147  0.007193656   -54.544784    72.114029 
   68400    52.292619    8.0287088      2204118          147  0.007193656   -54.867645      68.8966 
   68500     47.22974    7.7391733      2204118          147  0.007193656   -55.254625    56.526984 
   68600    46.630248    7.7564822      2204118          147  0.007193656    -54.86469    55.498063 
   68700    52.301675    7.8152894      2204118          147  0.007193656    -56.37532    67.410359 
   68800    53.918671    7.7799822      2204118          147  0.007193656   -57.235572    70.377153 
   68900    48.420881    7.5641419      2204118          147  0.007193656   -56.846643    57.754114 
   69000    46.295955    7.3109141      2204118          147  0.007193656   -57.996892    51.574669 
   69100    50.226627    7.3473587      2204118          147  0.007193656   -59.165919    59.708613 
   69200    53.424849    7.5621856      2204118          147  0.007193656    -58.87745    67.566516 
   69300    50.278598    7.6362323      2204118          147  0.007193656   -57.481964     61.51557 
   69400    47.427497    7.4827202      2204118          147  0.007193656   -57.699947    54.549708 
   69500    48.688588    7.5686607      2204118          147  0.007193656    -57.63685    57.597507 
   69600     51.86674    7.8831668      2204118          147  0.007193656   -56.521818    66.234471 
   69700    52.248787    7.9156215      2204118          147  0.007193656   -56.549726    67.110781 
   69800    48.794787    7.7653078      2204118          147  0.007193656   -56.564077    58.921629 
   69900    47.473922    7.7028461      2204118          147  0.007193656   -56.699135    55.660396 
   70000    50.289082    7.8538775      2204118          147  0.007193656   -56.809812    62.212537 
   70100    52.442078    8.0987082      2204118          147  0.007193656   -55.981225    68.136754 
   70200     49.95696    8.3001699      2204118          147  0.007193656   -53.858081    64.378212 
   70300    47.942641    8.3755887      2204118          147  0.007193656   -52.827265    60.641613 
   70400    49.843289    8.4427536      2204118          147  0.007193656   -53.070499    64.896763 
   70500    52.237216    8.4502069      2204118          147  0.007193656    -53.92973    69.703389 
   70600    50.849934    8.2511611      2204118          147  0.007193656   -54.898448    65.451305 
   70700    48.163086    7.9696142      2204118          147  0.007193656   -56.038979     57.95164 
   70800    48.301429    7.9279349      2204118          147  0.007193656   -56.439462    57.878581 
   70900    51.027715    8.1092945      2204118          147  0.007193656   -56.155257    64.615259 
   71000    52.102169    8.1911828      2204118          147  0.007193656   -56.034683    67.278813 
   71100     49.64829    8.0672727      2204118          147  0.007193656   -56.147325     61.35842 
   71200    48.093442    7.8945509      2204118          147  0.007193656    -56.85981    56.965978 
   71300    50.043688    7.7513126      2204118          147  0.007193656   -58.647006    59.794552 
   71400    51.585746    7.7426719      2204118          147  0.007193656    -59.33491    62.756334 
   71500    49.529686    7.9219491      2204118          147  0.007193656   -57.450936    59.774102 
   71600    48.477484    8.0810236      2204118          147  0.007193656   -56.166745    58.567979 
   71700    50.436264    8.2035938      2204118          147  0.007193656   -56.147501    63.223192 
   71800    51.287168    8.4239045      2204118          147  0.007193656   -54.940528    66.444053 
   71900    50.416639    8.3580354      2204118          147  0.007193656   -55.187485    64.136759 
   72000    48.896059    8.2519987      2204118          147  0.007193656   -55.351784     60.37361 
   72100    49.265339    8.2108142      2204118          147  0.007193656   -55.732778    60.866612 
   72200    50.253748    8.4317241      2204118          147  0.007193656   -54.346699    64.592021 
   72300    51.494356    8.3888687      2204118          147  0.007193656   -54.817439    67.057507 
   72400    51.023093    7.9166872      2204118          147  0.007193656   -57.699091    63.060487 
   72500    48.676729    7.4224988      2204118          147  0.007193656   -60.127489    55.078801 
   72600    48.029913    7.2462903      2204118          147  0.007193656   -60.908506    52.766924 
   72700    50.126925    7.4166004      2204118          147  0.007193656   -60.302484    58.336077 
   72800    51.866409    7.6668394      2204118          147  0.007193656   -59.004909    63.750598 
   72900    50.973539    7.5614465      2204118          147  0.007193656   -59.419097    61.223198 
   73000    48.898794     7.228989      2204118          147  0.007193656   -61.032524     54.69934 
   73100    48.671162    7.0004376      2204118          147  0.007193656   -62.488648    52.704466 
   73200    50.287698    7.0077724      2204118          147  0.007193656   -62.934823    56.084248 
   73300    51.065489    7.1236796      2204118          147  0.007193656   -62.385369     58.47455 
   73400    49.637811    7.2913597      2204118          147  0.007193656   -60.701494    56.779449 
   73500    48.865833    7.4622092      2204118          147  0.007193656    -59.19087    56.462985 
   73600    50.659471    7.4894293      2204118          147  0.007193656   -59.500638    60.398333 
   73700      51.8481    7.2859954      2204118          147  0.007193656   -61.191777    61.520398 
   73800    49.610489    7.0266372      2204118          147  0.007193656   -62.092817    55.323462 
   73900    47.551217    6.9979316      2204118          147  0.007193656   -61.419051    51.123418 
   74000    49.253112     7.255681      2204118          147  0.007193656   -60.037131    56.533321 
   74100    52.801636    7.4161453      2204118          147  0.007193656   -60.005353    64.963614 
   74200    51.851434     7.228358      2204118          147  0.007193656   -60.963506     61.75656 
   74300     47.34235    7.0778043      2204118          147  0.007193656   -60.387231    51.660899 
   74400    47.426402     7.094613      2204118          147  0.007193656   -60.291221     51.95584 
   74500    52.351195    7.1571375      2204118          147  0.007193656   -61.526122    62.376759 
   74600    52.979186    7.1542347      2204118          147  0.007193656   -61.745528    63.643657 
   74700     48.22231    7.0159812      2204118          147  0.007193656   -61.065786    53.065002 
   74800    46.936837    6.8976926      2204118          147  0.007193656   -61.531634    49.556744 
   74900    50.953846    6.9410398      2204118          147  0.007193656    -62.72584    57.869848 
   75000    53.059413     7.065262      2204118          147  0.007193656   -62.689196    62.889869 
   75100    49.545041    7.0607928      2204118          147  0.007193656   -61.629825    55.631553 
   75200    46.843822    7.1169953      2204118          147  0.007193656   -60.452853    50.415379 
   75300    49.351938    7.4053132      2204118          147  0.007193656   -59.315449    57.488901 
   75400    53.388799    7.6513049      2204118          147  0.007193656   -58.992168    67.366476 
   75500    51.604923    7.5928471      2204118          147  0.007193656   -58.739057    63.397575 
   75600     47.41934    7.3277745      2204118          147  0.007193656   -59.087286    53.143062 
   75700    48.121705    7.0695406      2204118          147  0.007193656   -61.051769     52.84091 
   75800    51.703245    7.0568348      2204118          147  0.007193656   -62.187056    60.182279 
   75900    52.033616     7.044367      2204118          147  0.007193656   -62.216322    60.934924 
[...]
  381700    49.636484    4.2876458      2204118          147  0.007193656   -42.835326    74.642478 
  381800    48.616705    4.3943006      2204118          147  0.007193656   -41.947918    73.116309 
  381900    50.075528    4.6328111      2204118          147  0.007193656    -40.91933    77.597585 
  382000    51.715606    4.7378479      2204118          147  0.007193656   -40.846859    81.551734 
  382100    50.222583    4.5540051      2204118          147  0.007193656   -41.707867    77.157093 
  382200     47.15433    4.3530306      2204118          147  0.007193656   -42.099694    69.503438 
  382300    48.707159    4.3922846      2204118          147  0.007193656   -42.336607    72.941703 
  382400    50.936521    4.4298765      2204118          147  0.007193656   -42.952718    77.601965 
  382500    50.873851    4.4895591      2204118          147  0.007193656    -42.54718    77.859178 
  382600    48.241362    4.5626794      2204118          147  0.007193656   -41.136338    73.039541 
  382700    47.468651    4.6656536      2204118          147  0.007193656   -40.075128    72.271926 
  382800    51.911451    4.7754863      2204118          147  0.007193656    -40.74716     82.11495 
  382900    51.786138    4.5123529      2204118          147  0.007193656   -42.369489    80.196035 
  383000    49.558969    4.1717936      2204118          147  0.007193656   -43.771177    73.523166 
  383100    49.217075    3.9899931      2204118          147  0.007193656   -44.856751     71.62841 
  383200    50.055516    4.0402715      2204118          147  0.007193656   -44.735403    73.734149 
  383300    52.368234    4.3054854      2204118          147  0.007193656   -43.755091    80.188116 
  383400    52.793679    4.5690699      2204118          147  0.007193656   -42.215831    82.734305 
  383500    48.089988    4.6173307      2204118          147  0.007193656   -40.417192    73.400419 
  383600    48.365254    4.7402353      2204118          147  0.007193656   -39.740148    74.728954 
  383700    50.695631    4.8248473      2204118          147  0.007193656   -39.936273     80.04828 
  383800     50.96619    4.8246723      2204118          147  0.007193656   -39.886052     80.73885 
  383900    49.387572    4.6703666      2204118          147  0.007193656    -40.21884    76.669846 
  384000    46.845077    4.3770583      2204118          147  0.007193656   -41.150024     69.72118 
  384100    46.969101    4.2093929      2204118          147  0.007193656   -42.013977    69.150762 
  384200    51.826175    4.1512965      2204118          147  0.007193656   -43.886427    78.773855 
  384300    51.370603    3.9195622      2204118          147  0.007193656   -45.168797    76.413255 
  384400    48.835904    3.7538591      2204118          147  0.007193656   -45.436101    70.146918 
  384500    48.808781    3.7935331      2204118          147  0.007193656   -45.269045     70.24978 
  384600    51.081353    4.0167536      2204118          147  0.007193656   -44.728166    76.169299 
  384700    51.711221    4.2572097      2204118          147  0.007193656   -43.523262    78.864951 
  384800    47.037777    4.2478362      2204118          147  0.007193656   -42.392534    68.934745 
  384900    46.647251    4.4291146      2204118          147  0.007193656   -41.275271    69.127726 
  385000    49.581146    4.7203518      2204118          147  0.007193656   -40.436489    76.910343 
  385100    51.270931    4.7719043      2204118          147  0.007193656   -40.724535    80.621615 
  385200     50.62787    4.6180741      2204118          147  0.007193656   -41.629112    78.195067 
  385300    48.248555     4.472226      2204118          147  0.007193656   -41.776102    72.416802 
  385400    48.914304    4.4725906      2204118          147  0.007193656   -41.883823     73.88475 
  385500    52.909525     4.582221      2204118          147  0.007193656   -42.411741    82.812575 
  385600    51.942878    4.5234969      2204118          147  0.007193656   -42.375156    80.561335 
  385700    49.611252    4.5191041      2204118          147  0.007193656   -41.490465     75.92762 
  385800    48.834303    4.5339254      2204118          147  0.007193656   -40.939718    74.639511 
  385900     51.06015    4.4654569      2204118          147  0.007193656   -41.970258    78.877026 
  386000     52.78657    4.3513052      2204118          147  0.007193656   -43.056873    81.876437 
  386100    48.838192    4.0145706      2204118          147  0.007193656   -43.775759    71.812675 
  386200    48.718268    3.8371747      2204118          147  0.007193656   -44.713301    70.591301 
  386300    50.838062    3.7822422      2204118          147  0.007193656   -45.590738    74.730914 
  386400     51.36269    3.7598074      2204118          147  0.007193656   -45.773418    75.789905 
  386500     47.85328    3.6907525      2204118          147  0.007193656     -44.9634     68.29398 
  386600    47.007366    3.7892376      2204118          147  0.007193656   -43.971925    67.283377 
  386700    49.540218    3.9578608      2204118          147  0.007193656    -43.60559    73.644375 
  386800    50.502825    3.9691378      2204118          147  0.007193656   -43.861032    75.667195 
  386900     50.28336    3.9716051      2204118          147  0.007193656    -43.72991    75.278894 
  387000    49.238051    3.8664608      2204118          147  0.007193656   -44.209175    72.325631 
  387100    48.283443    3.7788825      2204118          147  0.007193656   -44.633497    69.641979 
  387200    49.924327    3.9545826      2204118          147  0.007193656   -44.136499    74.022559 
  387300    52.014404    4.2014317      2204118          147  0.007193656   -43.202247    79.903529 
  387400    50.557888     4.138126      2204118          147  0.007193656   -43.364493    76.294055 
  387500    48.643895    4.0590027      2204118          147  0.007193656   -43.411308     71.71727 
  387600    49.149138    4.1255435      2204118          147  0.007193656   -43.225722    73.098648 
  387700    50.087964     4.161456      2204118          147  0.007193656   -43.447752    75.098598 
  387800     50.40519    4.1834933      2204118          147  0.007193656   -43.544173    75.752973 
  387900    49.670781      4.21022      2204118          147  0.007193656    -43.19212    74.366857 
  388000    47.761757    4.2117869      2204118          147  0.007193656   -42.660862    70.379906 
  388100    48.783575    4.3294753      2204118          147  0.007193656    -42.18807      73.2711 
  388200    51.931957    4.3915517      2204118          147  0.007193656   -42.876869    80.033774 
  388300    51.270441    4.1652454      2204118          147  0.007193656   -44.234066    77.110926 
  388400    49.235265    3.9624871      2204118          147  0.007193656   -45.008195    71.520017 
  388500    49.197727    3.9935646      2204118          147  0.007193656   -44.938151    71.501219 
  388600    49.974156    4.1592495      2204118          147  0.007193656   -44.211081    74.065913 
  388700    50.475421    4.3305229      2204118          147  0.007193656   -43.372829    76.090538 
  388800    50.395189    4.4053264      2204118          147  0.007193656   -43.061623    76.211855 
  388900     48.93084    4.3621644      2204118          147  0.007193656   -43.068873    72.738836 
  389000    48.591499    4.4129315      2204118          147  0.007193656   -42.755343    72.249227 
  389100    50.910617    4.5613627      2204118          147  0.007193656   -42.607849    77.885525 
  389200    51.916583    4.5326877      2204118          147  0.007193656   -43.246608    79.627651 
  389300     49.27406    4.3078544      2204118          147  0.007193656   -43.991354    72.628676 
  389400    48.396262    4.2474739      2204118          147  0.007193656   -44.258518    70.283974 
  389500    49.499907    4.3791786      2204118          147  0.007193656   -43.822151    73.332406 
  389600    50.218451     4.542573      2204118          147  0.007193656   -43.038926    75.816254 
  389700    50.309607    4.6389555      2204118          147  0.007193656   -42.466021    76.604905 
  389800    49.877277    4.6069892      2204118          147  0.007193656   -42.530606    75.517098 
  389900    48.025028     4.394875      2204118          147  0.007193656   -43.331257    70.332611 
  390000    48.824375    4.2517003      2204118          147  0.007193656   -44.499683    71.056049 
  390100    51.680404    4.3021844      2204118          147  0.007193656   -45.098317    77.216961 
  390200    51.048137    4.3653614      2204118          147  0.007193656   -44.480399    76.338451 
  390300    47.669868    4.4107362      2204118          147  0.007193656   -43.103179    69.720108 
  390400    48.336654    4.5817224      2204118          147  0.007193656   -42.207147    72.194266 
  390500    52.274551    4.7434385      2204118          147  0.007193656   -42.436459    81.285023 
  390600    50.712806    4.5513644      2204118          147  0.007193656   -43.171322     76.85388 
  390700    48.705097    4.3415622      2204118          147  0.007193656   -43.810423    71.463008 
  390800     49.11793    4.2822556      2204118          147  0.007193656   -44.237446    72.013062 
  390900    51.603634    4.3603623      2204118          147  0.007193656   -44.382175    77.751406 
  391000    51.725131    4.3751573      2204118          147  0.007193656   -44.172163    78.248973 
  391100    47.371809    4.2234358      2204118          147  0.007193656   -43.626916    68.490939 
  391200     48.15808    4.2711053      2204118          147  0.007193656   -43.445956    70.532814 
  391300    50.609207    4.3035368      2204118          147  0.007193656   -43.979497    75.800511 
  391400    50.784705    4.3291045      2204118          147  0.007193656   -43.768998    76.426372 
  391500    48.967325    4.3886649      2204118          147  0.007193656   -42.575648    73.318414 
  391600    47.803286    4.2789686      2204118          147  0.007193656   -42.814059    70.324998 
  391700    50.358849    4.1554455      2204118          147  0.007193656   -44.512618    74.674853 
  391800    52.462126    4.1261821      2204118          147  0.007193656   -45.368505    78.796922 
  391900    49.738306     4.026761      2204118          147  0.007193656    -45.12107    72.597721 
  392000    48.321478    4.0476049      2204118          147  0.007193656   -44.558258    69.807236 
  392100    49.561539    4.1820513      2204118          147  0.007193656   -44.177308    73.123117 
  392200    50.446123    4.2882486      2204118          147  0.007193656   -43.899822    75.494204 
  392300    50.327019    4.3049489      2204118          147  0.007193656   -43.864205    75.247931 
  392400    49.966498    4.2470968      2204118          147  0.007193656   -44.315736    73.943131 
  392500    49.424656    4.2577089      2204118          147  0.007193656   -44.254053    72.722402 
  392600    49.033455    4.3596067      2204118          147  0.007193656   -43.573246     72.47733 
  392700    50.587113    4.4997145      2204118          147  0.007193656   -43.243451    76.484265 
  392800    51.694074    4.5038894      2204118          147  0.007193656   -43.643546    78.704085 
  392900    49.746085    4.3251835      2204118          147  0.007193656   -44.232395    73.504807 
  393000    48.281273     4.204601      2204118          147  0.007193656   -44.588844    69.681494 
  393100     49.87446    4.3039083      2204118          147  0.007193656   -44.482003    73.559033 
  393200    52.280631    4.5142732      2204118          147  0.007193656   -43.959402    79.776472 
  393300    50.532373    4.5787731      2204118          147  0.007193656   -43.062787    76.535373 
  393400    47.329341    4.5822456      2204118          147  0.007193656   -42.048542      69.9688 
  393500    48.804637    4.7788362      2204118          147  0.007193656   -41.305811    74.203207 
  393600    52.448762    5.0254066      2204118          147  0.007193656   -40.859792    83.274008 
  393700    50.031146    4.9348283      2204118          147  0.007193656   -40.630362    77.781512 
  393800    48.099033    4.8351884      2204118          147  0.007193656   -40.669489    73.169532 
  393900    49.448524    4.8980009      2204118          147  0.007193656   -40.598681    76.434266 
  394000    51.685445    4.9884892      2204118          147  0.007193656   -40.605957    81.721251 
  394100    50.871045    4.9051028      2204118          147  0.007193656   -40.751409    79.648308 
  394200    48.513579    4.6942623      2204118          147  0.007193656    -41.33659    73.483563 
  394300    49.015669    4.6085837      2204118          147  0.007193656   -42.008782    73.999698 
  394400    51.950257    4.6814384      2204118          147  0.007193656   -42.358501    80.595455 
  394500    53.481961    4.7903486      2204118          147  0.007193656    -41.98794    84.591197 
  394600      48.8969     4.596327      2204118          147  0.007193656   -41.611523    74.115859 
  394700    48.359591    4.4502751      2204118          147  0.007193656    -42.32912    72.126578 
  394800     50.73777    4.4685492      2204118          147  0.007193656   -42.761098    77.323188 
  394900    51.610637    4.4955233      2204118          147  0.007193656   -42.555752    79.594403 
  395000    49.258088    4.3207663      2204118          147  0.007193656   -42.688894    73.893336 
  395100    47.851788    4.0966973      2204118          147  0.007193656   -43.589501    69.664348 
  395200    49.904498    4.1770546      2204118          147  0.007193656    -43.47605    74.636079 
  395300     51.00477    4.3995458      2204118          147  0.007193656    -42.06618    78.650032 
  395400    49.858345     4.541986      2204118          147  0.007193656   -40.476651    77.526245 
  395500    49.434268    4.5806586      2204118          147  0.007193656   -39.862459    77.136746 
  395600    50.634358    4.5244067      2204118          147  0.007193656   -40.466842    79.372691 
  395700    51.424837    4.4472799      2204118          147  0.007193656    -40.98267    80.727741 
  395800    49.101945    4.2167227      2204118          147  0.007193656   -41.459737    74.752939 
  395900    48.016915    3.9930855      2204118          147  0.007193656      -42.436    71.208666 
  396000    50.542628    3.9626178      2204118          147  0.007193656   -43.231952    76.390478 
  396100    52.022097    3.9637217      2204118          147  0.007193656   -43.611427    79.512558 
  396200    50.108505    3.9265394      2204118          147  0.007193656   -43.128394     75.46657 
  396300    49.444787    4.0052946      2204118          147  0.007193656   -42.261848    74.762252 
  396400    50.212109    4.0135499      2204118          147  0.007193656   -42.373495    76.466677 
  396500    51.340345    3.8334659      2204118          147  0.007193656   -43.925949    77.584489 
  396600    49.645641    3.5214628      2204118          147  0.007193656   -45.457097    72.042379 
  396700    47.944046    3.3798791      2204118          147  0.007193656   -45.861107    67.611096 
  396800     49.38625    3.5731709      2204118          147  0.007193656    -45.05324    71.832317 
  396900    50.442889    3.8413864      2204118          147  0.007193656   -43.648679    75.737694 
  397000    50.088427     3.953179      2204118          147  0.007193656   -42.904638    75.642807 
  397100    49.909724    3.9555439      2204118          147  0.007193656   -42.962306    75.162192 
  397200    49.742313    3.9499626      2204118          147  0.007193656   -43.106585    74.621689 
  397300    49.728353    3.9934627      2204118          147  0.007193656   -42.980695     74.71454 
  397400    50.373239    4.1354886      2204118          147  0.007193656   -42.309879    76.911649 
  397500    50.969184    4.2747325      2204118          147  0.007193656   -41.689348     78.94264 
  397600    50.115163    4.2625056      2204118          147  0.007193656   -41.611953     76.99877 
  397700    48.049079     4.149077      2204118          147  0.007193656   -41.756975    71.963817 
  397800    49.020991    4.1044489      2204118          147  0.007193656   -42.437435     73.58364 
  397900    52.539848    4.2309338      2204118          147  0.007193656   -42.753582    81.595795 
  398000    51.007666    4.2769652      2204118          147  0.007193656   -42.019086     78.70398 
  398100    49.198783    4.3517116      2204118          147  0.007193656    -40.96287    75.478998 
  398200     49.67831    4.3727537      2204118          147  0.007193656   -41.083929    76.492867 
  398300    50.391499     4.450925      2204118          147  0.007193656   -40.868365    78.396378 
  398400    50.705486    4.5984173      2204118          147  0.007193656   -39.817418    80.190458 
  398500    52.012902    4.4445546      2204118          147  0.007193656   -41.320801     81.78142 
  398600     49.73141    4.1831574      2204118          147  0.007193656   -42.307234    75.395238 
  398700     48.07562    4.1313646      2204118          147  0.007193656   -42.033261    71.750347 
  398800    49.844154    4.2887493      2204118          147  0.007193656   -41.418316    76.550993 
  398900    51.669654    4.3721929      2204118          147  0.007193656   -41.268349    81.021486 
  399000    50.806212    4.2063053      2204118          147  0.007193656   -41.942575    78.303696 
  399100    50.095887    3.9857354      2204118          147  0.007193656   -43.045019    75.520082 
  399200    50.111998    3.7911257      2204118          147  0.007193656   -44.227744    74.375488 
  399300    49.797506    3.6947199      2204118          147  0.007193656   -44.657181    73.201721 
  399400    49.227735    3.6711285      2204118          147  0.007193656   -44.528446    71.981944 
  399500    49.388566    3.6956483      2204118          147  0.007193656   -44.455559    72.435482 
  399600    51.080301    3.8060211      2204118          147  0.007193656   -44.350382    76.544593 
  399700    51.309949    3.8532519      2204118          147  0.007193656   -44.236013    77.202485 
  399800    48.518467    3.8200741      2204118          147  0.007193656   -43.674303    71.157419 
  399900    47.727616    3.9299285      2204118          147  0.007193656   -42.870699    70.089265 
  400000    51.057507    4.2418738      2204118          147  0.007193656   -42.006429    78.834598 
  400100    50.888732    4.3617546      2204118          147  0.007193656   -41.231334    79.210243 
Loop time of 42.5835 on 1 procs for 400000 steps with 795 atoms

Performance: 202.895 ns/day, 0.118 hours/ns, 9393.303 timesteps/s
95.0% CPU use with 1 MPI tasks x no OpenMP threads

MPI task timing breakdown:
Section |  min time  |  avg time  |  max time  |%varavg| %total
---------------------------------------------------------------
Pair    | 22.83      | 22.83      | 22.83      |   0.0 | 53.61
Neigh   | 2.4076     | 2.4076     | 2.4076     |   0.0 |  5.65
Comm    | 1.4376     | 1.4376     | 1.4376     |   0.0 |  3.38
Output  | 3.2187     | 3.2187     | 3.2187     |   0.0 |  7.56
Modify  | 11.585     | 11.585     | 11.585     |   0.0 | 27.21
Other   |            | 1.104      |            |       |  2.59

Nlocal:            795 ave         795 max         795 min
Histogram: 1 0 0 0 0 0 0 0 0 0
Nghost:            145 ave         145 max         145 min
Histogram: 1 0 0 0 0 0 0 0 0 0
Neighs:           1573 ave        1573 max        1573 min
Histogram: 1 0 0 0 0 0 0 0 0 0

Total # of neighbors = 1573
Ave neighs/atom = 1.9786164
Neighbor list builds = 4220
Dangerous builds = 5

write_data graphene_single_layer_LJ_795C_after.data
System init for write_data ...
  generated 0 of 0 mixed pair_coeff terms from geometric mixing rule
Total wall time: 0:00:42
