# System definition
read_data graphene_single_layer_x-45_y-45_795_C.data
Reading data file ...
  orthogonal box = (-51 -51 -51) to (96 96 51)
  1 by 1 by 1 MPI processor grid
  reading atoms ...
  795 atoms
  read_data CPU = 0.014 seconds
pair_style lj/cut 6
pair_coeff      1 1 0.066047 3.4

# Virtual force wall to keep the cylinder shape
#region myCylinder cylinder z 0. 0. 20.3 -22.079997 505.920003 units box
#fix wall all wall/region myCylinder lj93 1.0 1.0 2.5

# Minimization
timestep 0.25
thermo 100
thermo_style custom step temp press vol lx density pe etotal
dump 2 all custom 1000 graphene_single_layer_LJ_795C_after_temp_10K.lammpstrj id type x y z
min_style cg
minimize 1.0e-6 1.0e-6 100 1000
WARNING: Using 'neigh_modify every 1 delay 0 check yes' setting during minimization (../min.cpp:187)
  generated 0 of 0 mixed pair_coeff terms from geometric mixing rule
Neighbor list info ...
  update every 1 steps, delay 0 steps, check yes
  max neighbors/atom: 10000, page size: 100000
  master list distance cutoff = 6.4
  ghost atom cutoff = 6.4
  binsize = 3.2, bins = 46 46 32
  1 neighbor lists, perpetual/occasional/extra = 1 0 0
  (1) pair lj/cut, perpetual
      attributes: half, newton on
      pair build: half/bin/atomonly/newton
      stencil: half/bin/3d
      bin: standard
Per MPI rank memory allocation (min/avg/max) = 5.96 | 5.96 | 5.96 Mbytes
Step Temp Press Volume Lx Density PotEng TotEng 
       0            0    1335313.5      2204118          147  0.007193656     10699602     10699602 
     100            0     61841.43      2204118          147  0.007193656    488621.59    488621.59 
Loop time of 0.0602413 on 1 procs for 100 steps with 795 atoms

99.7% CPU use with 1 MPI tasks x no OpenMP threads

Minimization stats:
  Stopping criterion = max iterations
  Energy initial, next-to-last, final = 
      10699602.3573369   495470.853828546   488621.590421788
  Force two-norm initial, final = 694694.42 29375.63
  Force max component initial, final = 79169.705 9280.0147
  Final line search alpha, max atom move = 3.8811533e-05 0.36017159
  Iterations, force evaluations = 100 117

MPI task timing breakdown:
Section |  min time  |  avg time  |  max time  |%varavg| %total
---------------------------------------------------------------
Pair    | 0.038662   | 0.038662   | 0.038662   |   0.0 | 64.18
Neigh   | 0.017579   | 0.017579   | 0.017579   |   0.0 | 29.18
Comm    | 0.0003783  | 0.0003783  | 0.0003783  |   0.0 |  0.63
Output  | 0.0001949  | 0.0001949  | 0.0001949  |   0.0 |  0.32
Modify  | 0          | 0          | 0          |   0.0 |  0.00
Other   |            | 0.003427   |            |       |  5.69

Nlocal:            795 ave         795 max         795 min
Histogram: 1 0 0 0 0 0 0 0 0 0
Nghost:              0 ave           0 max           0 min
Histogram: 1 0 0 0 0 0 0 0 0 0
Neighs:          13073 ave       13073 max       13073 min
Histogram: 1 0 0 0 0 0 0 0 0 0

Total # of neighbors = 13073
Ave neighs/atom = 16.444025
Neighbor list builds = 35
Dangerous builds = 0
#timestep 0.25
fix 1 all nvt temp 10.0 10.0 $(100.0*dt)
fix 1 all nvt temp 10.0 10.0 25
run 400000
  generated 0 of 0 mixed pair_coeff terms from geometric mixing rule
Per MPI rank memory allocation (min/avg/max) = 4.835 | 4.835 | 4.835 Mbytes
Step Temp Press Volume Lx Density PotEng TotEng 
     100            0     61841.43      2204118          147  0.007193656    488621.59    488621.59 
     200    2222.9317    40044.072      2204118          147  0.007193656    314072.87    319334.03 
     300    1283.9839    30446.047      2204118          147  0.007193656    238149.84    241188.73 
     400    904.23689    24585.593      2204118          147  0.007193656     191791.6    193931.72 
     500    696.20588    20488.186      2204118          147  0.007193656    159400.16    161047.92 
     600    545.96897    17465.608      2204118          147  0.007193656    135533.57    136825.75 
     700    443.47359    15188.967      2204118          147  0.007193656    117576.97    118626.57 
     800     369.7958    13407.599      2204118          147  0.007193656     103542.1    104417.32 
     900    315.35421      11973.1      2204118          147  0.007193656    92251.708    92998.076 
    1000    273.32076    10790.763      2204118          147  0.007193656    82955.561    83602.447 
    1100     239.7149    9799.7374      2204118          147  0.007193656    75171.569    75738.917 
    1200    212.23939    8958.5824      2204118          147  0.007193656    68571.232    69073.552 
    1300    189.64021    8236.5099      2204118          147  0.007193656    62910.901    63359.735 
    1400    170.74789    7610.0758      2204118          147  0.007193656    58004.868    58408.988 
    1500    154.60907    7062.2167      2204118          147  0.007193656    53718.337    54084.261 
    1600     140.7526    6579.9011      2204118          147  0.007193656    49948.255    50281.383 
    1700    128.83597    6152.3702      2204118          147  0.007193656    46609.532    46914.456 
    1800    118.50296    5770.9422      2204118          147  0.007193656    43633.474    43913.942 
    1900    109.47857    5428.6783      2204118          147  0.007193656    40965.399    41224.508 
    2000    101.54831     5119.912      2204118          147  0.007193656    38560.401    38800.742 
    2100    94.541398    4840.0295      2204118          147  0.007193656    36382.279    36606.036 
    2200    88.317803    4585.1928      2204118          147  0.007193656    34400.763     34609.79 
    2300    82.763359    4352.1995      2204118          147  0.007193656    32590.572    32786.453 
    2400    77.781945    4138.3781      2204118          147  0.007193656    30930.756    31114.847 
    2500    73.281922    3941.4715      2204118          147  0.007193656     29403.41    29576.851 
    2600    69.175718    3759.6493      2204118          147  0.007193656    27994.195    28157.918 
    2700    65.406766    3591.3995      2204118          147  0.007193656    26691.266    26846.068 
    2800    61.946335    3435.3863      2204118          147  0.007193656    25484.043    25630.656 
    2900    58.769713     3290.418      2204118          147  0.007193656    24363.173    24502.267 
    3000    55.852141    3155.4331      2204118          147  0.007193656    23320.384    23452.573 
    3100    53.171014    3029.4662      2204118          147  0.007193656    22348.012    22473.855 
    3200    50.704956    2911.6665      2204118          147  0.007193656    21439.409    21559.416 
    3300    48.431308    2801.2769      2204118          147  0.007193656    20588.645     20703.27 
    3400    46.327994    2697.6327      2204118          147  0.007193656      19790.5    19900.148 
    3500    44.376206    2600.1502      2204118          147  0.007193656    19040.389    19145.417 
    3600    42.560494    2508.3157      2204118          147  0.007193656    18334.287    18435.017 
    3700    40.867908    2421.6703      2204118          147  0.007193656     17668.59    17765.315 
    3800    39.287387    2339.8114      2204118          147  0.007193656    17040.208    17133.191 
    3900    37.808956    2262.3608      2204118          147  0.007193656    16446.092    16535.577 
    4000    36.424229    2188.9906      2204118          147  0.007193656     15883.72    15969.927 
    4100    35.125619    2119.3985      2204118          147  0.007193656    15350.714    15433.848 
    4200    33.906282    2053.3157      2204118          147  0.007193656    14845.015    14925.263 
    4300    32.759829    1990.4852      2204118          147  0.007193656    14364.533    14442.068 
    4400     31.68062    1930.6855      2204118          147  0.007193656     13907.58     13982.56 
    4500    30.663598    1873.7125      2204118          147  0.007193656    13472.577    13545.151 
    4600     29.70377    1819.3737      2204118          147  0.007193656    13057.981    13128.282 
    4700    28.797018    1767.5014      2204118          147  0.007193656    12662.517    12730.673 
    4800    27.939377    1717.9375      2204118          147  0.007193656    12284.941    12351.067 
    4900    27.127202    1670.5353      2204118          147  0.007193656    11924.087     11988.29 
    5000    26.357439    1625.1643      2204118          147  0.007193656    11578.955    11641.337 
    5100    25.627207    1581.7047      2204118          147  0.007193656    11248.628    11309.281 
    5200    24.933904    1540.0414      2204118          147  0.007193656    10932.192    10991.205 
    5300    24.275299    1500.0682      2204118          147  0.007193656    10628.802    10686.256 
    5400    23.649365    1461.6924      2204118          147  0.007193656    10337.777     10393.75 
    5500    23.054161    1424.8211      2204118          147  0.007193656    10058.373    10112.937 
    5600    22.487764    1389.3679      2204118          147  0.007193656     9789.894    9843.1172 
    5700    21.948556    1355.2577      2204118          147  0.007193656     9531.783    9583.7301 
    5800    21.434851    1322.4182      2204118          147  0.007193656    9283.4843    9334.2155 
    5900    20.945023     1290.779      2204118          147  0.007193656    9044.4224    9093.9943 
    6000    20.477768    1260.2812      2204118          147  0.007193656    8814.1766    8862.6427 
    6100     20.03175    1230.8641      2204118          147  0.007193656    8592.2579    8639.6683 
    6200    19.605788    1202.4721      2204118          147  0.007193656    8378.2242    8424.6265 
    6300    19.198778    1175.0578      2204118          147  0.007193656     8171.746    8217.1849 
    6400    18.809586    1148.5681      2204118          147  0.007193656    7972.3596    8016.8774 
    6500    18.437432    1122.9625      2204118          147  0.007193656     7779.793      7823.43 
    6600    18.081299     1098.194      2204118          147  0.007193656    7593.6352    7636.4294 
    6700    17.740455    1074.2301      2204118          147  0.007193656    7413.6991    7455.6865 
    6800    17.414099     1051.028      2204118          147  0.007193656    7239.6031    7280.8182 
    6900    17.101537    1028.5533      2204118          147  0.007193656    7071.0851    7111.5603 
    7000    16.802064     1006.775      2204118          147  0.007193656    6907.9242    6947.6907 
    7100    16.515129    985.66016      2204118          147  0.007193656    6749.8462    6788.9336 
    7200    16.240167    965.18078      2204118          147  0.007193656    6596.6492    6635.0858 
    7300     15.97658    945.30813      2204118          147  0.007193656    6448.1016    6485.9144 
    7400    15.723808     926.0166      2204118          147  0.007193656    6304.0103    6341.2248 
    7500    15.481508    907.28344      2204118          147  0.007193656    6164.2173    6200.8583 
    7600     15.24916    889.08616      2204118          147  0.007193656    6028.5577    6064.6489 
    7700    15.026242     871.3955      2204118          147  0.007193656    5896.7421    5932.3057 
    7800    14.812321    854.19515      2204118          147  0.007193656    5768.6853    5803.7426 
    7900    14.607098    837.46578      2204118          147  0.007193656    5644.2426    5678.8142 
    8000    14.410111    821.18708      2204118          147  0.007193656    5523.2437     5557.349 
    8100    14.221053     805.3387      2204118          147  0.007193656    5405.5086    5439.1665 
    8200    14.039598    789.90935      2204118          147  0.007193656    5291.0003    5324.2287 
    8300    13.865449    774.88143      2204118          147  0.007193656     5179.569    5212.3853 
    8400     13.69816     760.2367      2204118          147  0.007193656    5071.0472    5103.4675 
    8500    13.537611    745.96328      2204118          147  0.007193656    4965.3657     4997.406 
    8600    13.383442    732.04588      2204118          147  0.007193656    4862.3932    4894.0686 
    8700    13.235445    718.47551      2204118          147  0.007193656    4762.0966    4793.4218 
    8800    13.093384    705.23663      2204118          147  0.007193656     4664.329     4695.318 
    8900     12.95706    692.31888      2204118          147  0.007193656     4569.024    4599.6903 
    9000    12.826128    679.70636      2204118          147  0.007193656    4476.0184    4506.3748 
    9100    12.700499    667.39801      2204118          147  0.007193656    4385.3903    4415.4494 
    9200    12.579876     655.3713      2204118          147  0.007193656    4296.8573    4326.6309 
    9300    12.464087    643.62105      2204118          147  0.007193656    4210.4206    4239.9202 
    9400    12.353053     632.1409      2204118          147  0.007193656    4126.0588    4155.2955 
    9500    12.246584    620.91777      2204118          147  0.007193656    4043.6344    4072.6192 
    9600    12.144367    609.94665      2204118          147  0.007193656    3963.1414    3991.8843 
    9700     12.04639    599.21526      2204118          147  0.007193656    3884.4489    3912.9599 
    9800    11.952486    588.71979      2204118          147  0.007193656    3807.5642    3835.8529 
    9900    11.862468    578.45064      2204118          147  0.007193656    3732.3952    3760.4709 
   10000    11.776198     568.4006      2204118          147  0.007193656    3658.8869    3686.7584 
   10100    11.693703    558.56672      2204118          147  0.007193656    3587.0527     3614.729 
   10200    11.614735    548.94176      2204118          147  0.007193656    3516.8323    3544.3216 
   10300    11.539014    539.51119      2204118          147  0.007193656    3448.0415    3475.3516 
   10400     11.46653     530.2735      2204118          147  0.007193656    3380.7098    3407.8484 
   10500    11.397217    521.22378      2204118          147  0.007193656    3314.8091    3341.7836 
   10600     11.33097     512.3558      2204118          147  0.007193656     3250.287    3277.1047 
   10700    11.267692    503.66504      2204118          147  0.007193656     3187.118     3213.786 
   10800    11.207134    495.14371      2204118          147  0.007193656    3125.2198    3151.7444 
   10900    11.149285     486.7888      2204118          147  0.007193656    3064.5876    3090.9753 
   11000    11.094235    478.59638      2204118          147  0.007193656    3005.1998    3031.4572 
   11100    11.041542    470.56121      2204118          147  0.007193656    2947.0118    2973.1445 
   11200    10.991093    462.67534      2204118          147  0.007193656    2889.9311    2915.9444 
   11300    10.942892    454.93912      2204118          147  0.007193656    2834.0012    2859.9004 
   11400    10.896819     447.3475      2204118          147  0.007193656    2779.1742    2804.9644 
   11500    10.852576     439.8973      2204118          147  0.007193656    2725.4303    2751.1158 
   11600    10.810047    432.58108      2204118          147  0.007193656    2672.6753    2698.2602 
   11700    10.768837    425.39639      2204118          147  0.007193656    2620.8948    2646.3821 
   11800     10.72837     418.3425      2204118          147  0.007193656    2570.0973    2595.4889 
   11900    10.688787    411.41966      2204118          147  0.007193656    2520.3029    2545.6007 
   12000    10.649844    404.62447      2204118          147  0.007193656    2471.4673     2496.673 
   12100    10.611426    397.96064      2204118          147  0.007193656    2423.6602    2448.7749 
   12200    10.573583    391.42039      2204118          147  0.007193656     2376.759    2401.7842 
   12300    10.537058     385.0033      2204118          147  0.007193656    2330.7662     2355.705 
   12400    10.503234    378.71251      2204118          147  0.007193656    2285.7522    2310.6108 
   12500    10.472643    372.54275      2204118          147  0.007193656    2241.6597     2266.446 
   12600    10.445652    366.48862      2204118          147  0.007193656    2198.4393    2223.1617 
   12700    10.421581     360.5457      2204118          147  0.007193656    2156.0619    2180.7274 
   12800    10.398784    354.70758      2204118          147  0.007193656    2114.4606    2139.0721 
   12900    10.376544    348.97744      2204118          147  0.007193656     2073.718    2098.2768 
   13000    10.354794    343.34491      2204118          147  0.007193656    2033.6851    2058.1925 
   13100    10.333779    337.81121      2204118          147  0.007193656    1994.4026    2018.8602 
   13200    10.313928    332.37402      2204118          147  0.007193656    1955.8517    1980.2623 
   13300    10.295111    327.03164      2204118          147  0.007193656    1918.0238    1942.3898 
   13400    10.277164    321.78349      2204118          147  0.007193656    1880.9278    1905.2514 
   13500    10.260034    316.61996      2204118          147  0.007193656    1844.4217    1868.7047 
   13600     10.24381    311.54826      2204118          147  0.007193656    1808.6427    1832.8874 
   13700    10.228482     306.5604      2204118          147  0.007193656    1773.4746     1797.683 
   13800    10.213757    301.65562      2204118          147  0.007193656    1738.9211    1763.0946 
   13900    10.199779    296.83273      2204118          147  0.007193656    1704.9774    1729.1178 
   14000    10.186633    292.09308      2204118          147  0.007193656     1671.681    1695.7904 
   14100    10.174071    287.43098      2204118          147  0.007193656    1638.9524     1663.032 
   14200    10.162116     282.8459      2204118          147  0.007193656    1606.7963    1630.8476 
   14300    10.150956    278.34086      2204118          147  0.007193656    1575.2766    1599.3015 
   14400    10.140298    273.90927      2204118          147  0.007193656    1544.2975    1568.2971 
   14500    10.130228    269.55528      2204118          147  0.007193656    1513.9405    1537.9163 
   14600    10.120552    265.26783      2204118          147  0.007193656    1484.0345    1507.9874 
   14700    10.111262    261.04918      2204118          147  0.007193656    1454.6291      1478.56 
   14800    10.102683    256.90309      2204118          147  0.007193656    1425.7983     1449.709 
   14900    10.094614    252.82262      2204118          147  0.007193656    1397.4392    1421.3307 
   15000    10.086992    248.81005      2204118          147  0.007193656    1369.6008    1393.4743 
   15100    10.079586    244.86115      2204118          147  0.007193656    1342.2235    1366.0795 
   15200    10.072583    240.97728      2204118          147  0.007193656    1315.3406      1339.18 
   15300    10.066088    237.15676      2204118          147  0.007193656    1288.9346    1312.7587 
   15400    10.059941    233.39641      2204118          147  0.007193656    1262.9629    1286.7724 
   15500    10.054076    229.69664      2204118          147  0.007193656    1237.4425    1261.2381 
   15600    10.048669    226.06401      2204118          147  0.007193656    1212.4917    1236.2745 
   15700    10.043527     222.4847      2204118          147  0.007193656    1187.8905    1211.6611 
   15800      10.0386    218.96837      2204118          147  0.007193656    1163.8089    1187.5679 
   15900    10.033994    215.50536      2204118          147  0.007193656    1140.0952    1163.8433 
   16000     10.02949    212.09116      2204118          147  0.007193656    1116.6832    1140.4206 
   16100    10.025324     208.7355      2204118          147  0.007193656    1093.7433    1117.4708 
   16200    10.021608     205.4369      2204118          147  0.007193656    1071.2593    1094.9781 
   16300    10.018177    202.19131      2204118          147  0.007193656    1049.1727    1072.8833 
   16400    10.014778    198.99986      2204118          147  0.007193656    1027.5104     1051.213 
   16500    10.011392    195.85304      2204118          147  0.007193656    1006.1223    1029.8169 
   16600    10.008259    192.75969      2204118          147  0.007193656    985.16273    1008.8499 
   16700    10.005594    189.71077      2204118          147  0.007193656    964.48932    988.17019 
   16800    10.002999     186.7105      2204118          147  0.007193656    944.18036    967.85509 
   16900    10.000452    183.75605      2204118          147  0.007193656    924.19584    947.86455 
   17000    9.9981091     180.8517      2204118          147  0.007193656     904.6142    928.27736 
   17100    9.9961206    177.99253      2204118          147  0.007193656    885.36105     909.0195 
   17200    9.9941343    175.17469      2204118          147  0.007193656    866.37976    890.03351 
   17300    9.9921997    172.40404      2204118          147  0.007193656    847.77459    871.42376 
   17400    9.9905264    169.67268      2204118          147  0.007193656    829.42091    853.06612 
   17500    9.9888745    166.98601      2204118          147  0.007193656    811.41496    835.05626 
   17600    9.9875809    164.34679      2204118          147  0.007193656    793.80947    817.44771 
   17700    9.9862879    161.74513      2204118          147  0.007193656    776.44653    800.08171 
   17800    9.9849056    159.18338      2204118          147  0.007193656    759.37169     783.0036 
   17900    9.9835823    156.66193      2204118          147  0.007193656      742.597    766.22578 
   18000    9.9824351    154.17248      2204118          147  0.007193656    725.99056    749.61662 
   18100    9.9816236    151.72756      2204118          147  0.007193656    709.76669    733.39083 
   18200    9.9806148    149.31792      2204118          147  0.007193656    693.77724    717.39899 
   18300       9.9795    146.94351      2204118          147  0.007193656    678.02636    701.64548 
   18400    9.9785392    144.60836      2204118          147  0.007193656    662.58599    686.20283 
   18500    9.9778995    142.30936      2204118          147  0.007193656    647.40919    671.02451 
   18600    9.9770983    140.04443      2204118          147  0.007193656    632.46684    656.08027 
   18700     9.976105    137.81364      2204118          147  0.007193656    617.76407    641.37514 
   18800     9.975137    135.61609      2204118          147  0.007193656    603.28942     626.8982 
   18900    9.9744924    133.45537      2204118          147  0.007193656    589.10709    612.71435 
   19000    9.9740904    131.33148      2204118          147  0.007193656     575.2218    598.82811 
   19100    9.9735655    129.23426      2204118          147  0.007193656    561.46939    585.07446 
   19200    9.9728993    127.17546      2204118          147  0.007193656    548.04971     571.6532 
   19300    9.9725754     125.1459      2204118          147  0.007193656    534.81484    558.41756 
   19400    9.9723927     123.1481      2204118          147  0.007193656    521.81187    545.41416 
   19500    9.9722587    121.18096      2204118          147  0.007193656    509.02821    532.63019 
   19600    9.9720753    119.24545      2204118          147  0.007193656    496.48531    520.08685 
   19700    9.9721595    117.34048      2204118          147  0.007193656    484.16981    507.77155 
   19800    9.9721025    115.46193      2204118          147  0.007193656    472.01878    495.62038 
   19900    9.9718566    113.61086      2204118          147  0.007193656    460.05414    483.65516 
   20000    9.9719247    111.79236      2204118          147  0.007193656    448.36461    471.96579 
   20100    9.9720582     109.9978      2204118          147  0.007193656    436.81118    460.41268 
   20200    9.9719465    108.22979      2204118          147  0.007193656    425.44139    449.04262 
   20300     9.971788    106.49045      2204118          147  0.007193656    414.29432    437.89518 
   20400    9.9719157    104.78038      2204118          147  0.007193656    403.38334     426.9845 
   20500    9.9721568    103.09403      2204118          147  0.007193656    392.62034    416.22207 
   20600    9.9720591    101.43153      2204118          147  0.007193656    382.01118    405.61268 
   20700    9.9719474    99.796092      2204118          147  0.007193656    371.61207    395.21331 
   20800    9.9721159    98.187306      2204118          147  0.007193656    361.41991    385.02155 
   20900    9.9724926    96.603714      2204118          147  0.007193656    351.41438    375.01691 
   21000    9.9727354    95.044383      2204118          147  0.007193656    341.58376    365.18687 
   21100    9.9726228    93.507435      2204118          147  0.007193656    331.90025    355.50308 
   21200    9.9726159    91.994054      2204118          147  0.007193656    322.38642    345.98924 
   21300    9.9729481    90.503861      2204118          147  0.007193656    313.03934    336.64295 
   21400    9.9733616    89.035953      2204118          147  0.007193656    303.84756    327.45215 
   21500    9.9735514    87.590976      2204118          147  0.007193656    294.82512    318.43015 
   21600    9.9735124    86.169116      2204118          147  0.007193656    285.97809    309.58303 
   21700    9.9736735    84.766991      2204118          147  0.007193656    277.25305    300.85837 
   21800    9.9740139    83.383745      2204118          147  0.007193656    268.63903    292.24515 
   21900    9.9742596    82.022603      2204118          147  0.007193656    260.19287    283.79958 
   22000    9.9744433    80.683761      2204118          147  0.007193656    251.92045    275.52759 
   22100    9.9746504    79.363351      2204118          147  0.007193656    243.76009    267.36772 
   22200     9.974994    78.065623      2204118          147  0.007193656    235.78523    259.39368 
   22300    9.9752993    76.787197      2204118          147  0.007193656    227.94277    251.55194 
   22400    9.9754656    75.527756      2204118          147  0.007193656    220.23043    243.83999 
   22500    9.9757039    74.290047      2204118          147  0.007193656    212.69651    236.30664 
   22600    9.9760328    73.070217      2204118          147  0.007193656    205.27953    228.89044 
   22700     9.976315    71.868985      2204118          147  0.007193656    197.99421    221.60578 
   22800    9.9765291    70.687587      2204118          147  0.007193656    190.86374    214.47582 
   22900    9.9767038    69.520671      2204118          147  0.007193656    183.80159    207.41409 
   23000    9.9769986     68.37254      2204118          147  0.007193656    176.88172    200.49491 
   23100    9.9773118    67.240885      2204118          147  0.007193656    170.06833    193.68226 
   23200     9.977526    66.126467      2204118          147  0.007193656    163.37647    186.99091 
   23300    9.9778478    65.033581      2204118          147  0.007193656    156.87993    180.49513 
   23400    9.9781655    63.954841      2204118          147  0.007193656    150.45833    174.07429 
   23500    9.9783192    62.889497      2204118          147  0.007193656    144.10158     167.7179 
   23600      9.97846    61.841384      2204118          147  0.007193656    137.87562    161.49227 
   23700    9.9788495    60.810756      2204118          147  0.007193656    131.78684    155.40441 
   23800    9.9793151     59.79531      2204118          147  0.007193656    125.79936    149.41804 
   23900    9.9795516    58.799367      2204118          147  0.007193656    119.98751    143.60674 
   24000      9.97965    57.815076      2204118          147  0.007193656    114.22262    137.84209 
   24100    9.9798555     56.84782      2204118          147  0.007193656    108.59614    132.21609 
   24200    9.9801869    55.889748      2204118          147  0.007193656     102.9796    126.60034 
   24300    9.9804823     54.94978      2204118          147  0.007193656    97.523696    121.14513 
   24400    9.9807795    54.025129      2204118          147  0.007193656    92.184207    115.80635 
   24500    9.9810338    53.113528      2204118          147  0.007193656    86.925655     110.5484 
   24600    9.9813479    52.220846      2204118          147  0.007193656    81.847685    105.47117 
   24700    9.9816346    51.336688      2204118          147  0.007193656    76.779518    100.40368 
   24800    9.9818327    50.467961      2204118          147  0.007193656    71.838086     95.46272 
   24900    9.9819874    49.609398      2204118          147  0.007193656     66.93748     90.56248 
   25000    9.9822806      48.7669      2204118          147  0.007193656    62.177613    85.803307 
   25100    9.9826763    47.937204      2204118          147  0.007193656    57.506091    81.132722 
   25200     9.982948    47.117049      2204118          147  0.007193656    52.870655    76.497929 
   25300     9.983052    46.313367      2204118          147  0.007193656    48.388414    72.015934 
   25400    9.9833593     45.52444      2204118          147  0.007193656    44.032197    67.660444 
   25500    9.9837372    44.743464      2204118          147  0.007193656    39.690665    63.319807 
   25600    9.9839321    43.975333      2204118          147  0.007193656    35.447147     59.07675 
   25700    9.9840245    43.219876      2204118          147  0.007193656    31.300381    54.930202 
   25800    9.9842841    42.474882      2204118          147  0.007193656    27.215111    50.845547 
   25900    9.9846805    41.744739      2204118          147  0.007193656    23.266071    46.897445 
   26000    9.9849579    41.021633      2204118          147  0.007193656    19.325018    42.957048 
   26100    9.9849574    40.312528      2204118          147  0.007193656    15.509443    39.141473 
   26200    9.9851131    39.612188      2204118          147  0.007193656    11.733417    35.365816 
   26300    9.9855171    38.925535      2204118          147  0.007193656    8.0803095    31.713664 
   26400    9.9859614    38.247292      2204118          147  0.007193656    4.4639379    28.098344 
   26500    9.9859974     37.57985      2204118          147  0.007193656   0.92573563    24.560227 
   26600    9.9859616    36.923077      2204118          147  0.007193656   -2.5354115    21.098995 
   26700    9.9861998    36.271757      2204118          147  0.007193656   -6.0050558    17.629914 
   26800    9.9866061    35.634881      2204118          147  0.007193656   -9.3319744    14.303957 
   26900    9.9870921    35.011737      2204118          147  0.007193656   -12.526509    11.110572 
   27000    9.9871523     34.39505      2204118          147  0.007193656   -15.707962    7.9292621 
   27100    9.9870731    33.792329      2204118          147  0.007193656   -18.750516    4.8865205 
   27200    9.9873181    33.192274      2204118          147  0.007193656   -21.841327      1.79629 
   27300    9.9876826    32.601868      2204118          147  0.007193656   -24.862734   -1.2242541 
   27400    9.9878674    32.024529      2204118          147  0.007193656   -27.756438   -4.1175214 
   27500     9.988079    31.456544      2204118          147  0.007193656   -30.583229   -6.9438115 
   27600    9.9882355    30.896265      2204118          147  0.007193656    -33.36929   -9.7295021 
   27700    9.9883952    30.345098      2204118          147  0.007193656    -36.09019   -12.450024 
   27800    9.9887025    29.805447      2204118          147  0.007193656   -38.704909   -15.064016 
   27900    9.9889457    29.274638      2204118          147  0.007193656   -41.256632   -17.615163 
   28000    9.9888305    28.743932      2204118          147  0.007193656    -43.88945   -20.248254 
   28100    9.9888781    28.225939      2204118          147  0.007193656   -46.392902   -22.751593 
   28200    9.9892459    27.713427      2204118          147  0.007193656   -48.886181   -25.244002 
   28300    9.9896594    27.213361      2204118          147  0.007193656   -51.251956   -27.608798 
   28400    9.9897044    26.716465      2204118          147  0.007193656   -53.643257   -29.999993 
   28500    9.9894928    26.229274      2204118          147  0.007193656   -55.950567   -32.307803 
   28600    9.9897411    25.749152      2204118          147  0.007193656   -58.217308   -34.573956 
   28700    9.9901606    25.275484      2204118          147  0.007193656   -60.452402   -36.808058 
   28800    9.9904947    24.814224      2204118          147  0.007193656    -62.55571   -38.910575 
   28900    9.9903529     24.35562      2204118          147  0.007193656   -64.688342   -41.043542 
   29000    9.9901878    23.904688      2204118          147  0.007193656   -66.766304   -43.121896 
   29100    9.9905052    23.459816      2204118          147  0.007193656    -68.81569    -45.17053 
   29200    9.9910647    23.027977      2204118          147  0.007193656   -70.719015   -47.072531 
   29300    9.9912975    22.596302      2204118          147  0.007193656   -72.688852   -49.041817 
   29400    9.9909914     22.17588      2204118          147  0.007193656   -74.539501    -50.89319 
   29500     9.990821    21.751912      2204118          147  0.007193656    -76.51667   -52.870763 
   29600    9.9912372    21.341085      2204118          147  0.007193656   -78.341819   -54.694927 
   29700    9.9919413    20.939676      2204118          147  0.007193656   -80.075414   -56.426855 
   29800      9.99196    20.540428      2204118          147  0.007193656   -81.836416   -58.187813 
   29900    9.9915802    20.147831      2204118          147  0.007193656   -83.549532   -59.901827 
   30000     9.991769    19.765372      2204118          147  0.007193656   -85.156515   -61.508364 
   30100    9.9924025    19.382778      2204118          147  0.007193656   -86.827197   -63.177547 
   30200    9.9926658    19.013129      2204118          147  0.007193656   -88.342401   -64.692127 
   30300    9.9924668    18.651247      2204118          147  0.007193656   -89.787569   -66.137766 
   30400    9.9923721    18.289458      2204118          147  0.007193656   -91.290226   -67.640648 
   30500    9.9926059    17.932802      2204118          147  0.007193656    -92.76603   -69.115898 
   30600    9.9929099    17.578661      2204118          147  0.007193656   -94.257708   -70.606857 
   30700    9.9929051    17.230522      2204118          147  0.007193656   -95.706407   -72.055567 
   30800    9.9928739    16.889845      2204118          147  0.007193656   -97.087498   -73.436732 
   30900    9.9930321    16.553016      2204118          147  0.007193656   -98.460668   -74.809527 
   31000    9.9932222    16.223529      2204118          147  0.007193656   -99.767043   -76.115453 
   31100    9.9933669    15.899264      2204118          147  0.007193656   -101.04116   -77.389229 
   31200    9.9932557    15.575082      2204118          147  0.007193656   -102.36764    -78.71597 
   31300     9.993248      15.2555      2204118          147  0.007193656   -103.67088   -80.019233 
   31400    9.9935186    14.943493      2204118          147  0.007193656   -104.90063   -81.248337 
   31500    9.9939385    14.640465      2204118          147  0.007193656   -106.03247   -82.379184 
   31600    9.9940277    14.339182      2204118          147  0.007193656   -107.18544   -83.531946 
   31700    9.9938109    14.041093      2204118          147  0.007193656   -108.33464    -84.68166 
   31800    9.9936899    13.742093      2204118          147  0.007193656   -109.54781   -85.895115 
   31900    9.9940191     13.45228      2204118          147  0.007193656   -110.65624   -87.002763 
   32000    9.9945226    13.164925      2204118          147  0.007193656   -111.77071   -88.116045 
   32100    9.9945773    12.884479      2204118          147  0.007193656   -112.81574   -89.160942 
   32200    9.9943024    12.605786      2204118          147  0.007193656   -113.87644   -90.222295 
   32300    9.9943283    12.332362      2204118          147  0.007193656   -114.89407    -91.23986 
   32400    9.9948024    12.061599      2204118          147  0.007193656   -115.91151   -92.256184 
   32500    9.9950664    11.794936      2204118          147  0.007193656   -116.90382   -93.247862 
   32600    9.9948149    11.531812      2204118          147  0.007193656   -117.87978   -94.224423 
   32700     9.994626    11.273735      2204118          147  0.007193656   -118.81445    -95.15954 
   32800     9.994859    11.015607      2204118          147  0.007193656   -119.79255   -96.137081 
   32900     9.995254    10.765499      2204118          147  0.007193656   -120.67915    -97.02275 
   33000    9.9953363    10.519776      2204118          147  0.007193656   -121.53398    -97.87739 
   33100    9.9951143    10.276361      2204118          147  0.007193656   -122.39127   -98.735199 
   33200    9.9950405    10.036259      2204118          147  0.007193656   -123.23429   -99.578395 
   33300    9.9953927    9.7984121      2204118          147  0.007193656   -124.08044   -100.42371 
   33400    9.9956479    9.5637743      2204118          147  0.007193656   -124.91303    -101.2557 
   33500    9.9955092    9.3358504      2204118          147  0.007193656    -125.6732   -102.01619 
   33600    9.9953664    9.1095332      2204118          147  0.007193656   -126.44591   -102.78924 
   33700    9.9955487    8.8873444      2204118          147  0.007193656   -127.18915   -103.53205 
   33800    9.9958915    8.6666887      2204118          147  0.007193656   -127.94566   -104.28775 
   33900    9.9958725    8.4520924      2204118          147  0.007193656   -128.63945   -104.98159 
   34000    9.9957038    8.2404724      2204118          147  0.007193656   -129.32176    -105.6643 
   34100    9.9956925    8.0302966      2204118          147  0.007193656   -130.01802   -106.36059 
   34200     9.995962    7.8250906      2204118          147  0.007193656   -130.66934   -107.01126 
   34300    9.9963193    7.6232606      2204118          147  0.007193656   -131.30181   -107.64289 
   34400    9.9962382    7.4237392      2204118          147  0.007193656   -131.93258   -108.27386 
   34500    9.9957668    7.2265337      2204118          147  0.007193656   -132.56138   -108.90377 
   34600    9.9958147    7.0336867      2204118          147  0.007193656   -133.15469   -109.49696 
   34700    9.9964408    6.8451568      2204118          147  0.007193656   -133.71293   -110.05372 
   34800    9.9966415    6.6573117      2204118          147  0.007193656   -134.29546   -110.63578 
   34900    9.9961079    6.4726654      2204118          147  0.007193656   -134.86005   -111.20163 
   35000    9.9958555      6.29327      2204118          147  0.007193656   -135.37318   -111.71535 
   35100    9.9963572    6.1165777      2204118          147  0.007193656   -135.87728   -112.21827 
   35200    9.9968068    5.9420157      2204118          147  0.007193656   -136.38098    -112.7209 
   35300    9.9964545    5.7700438      2204118          147  0.007193656   -136.87579   -113.21655 
   35400    9.9959847    5.6037153      2204118          147  0.007193656   -137.31118   -113.65306 
   35500    9.9962446    5.4389645      2204118          147  0.007193656     -137.755   -114.09625 
   35600    9.9968384    5.2777541      2204118          147  0.007193656   -138.17356   -114.51341 
   35700    9.9968424    5.1189648      2204118          147  0.007193656     -138.584   -114.92384 
   35800    9.9963384    4.9620235      2204118          147  0.007193656   -138.99499   -115.33602 
   35900    9.9963428    4.8094167      2204118          147  0.007193656   -139.36469   -115.70572 
   36000    9.9970564    4.6579693      2204118          147  0.007193656   -139.74448   -116.08382 
   36100     9.997519    4.5100243      2204118          147  0.007193656   -140.09276     -116.431 
   36200    9.9973349    4.3648774      2204118          147  0.007193656   -140.41906   -116.75773 
   36300    9.9970839    4.2203634      2204118          147  0.007193656   -140.75794   -117.09721 
   36400    9.9974921     4.078387      2204118          147  0.007193656   -141.07643   -117.41473 
   36500    9.9981389    3.9382857      2204118          147  0.007193656   -141.38375   -117.72052 
   36600    9.9981337     3.800956      2204118          147  0.007193656   -141.66355   -118.00033 
   36700    9.9975039    3.6638654      2204118          147  0.007193656   -141.95814   -118.29641 
   36800    9.9971569    3.5286578      2204118          147  0.007193656   -142.24171   -118.58081 
   36900    9.9975219    3.3964638      2204118          147  0.007193656   -142.49691   -118.83515 
   37000    9.9978417    3.2653025      2204118          147  0.007193656    -142.7572   -119.09467 
   37100    9.9974911    3.1362177      2204118          147  0.007193656   -143.00539    -119.3437 
   37200    9.9971168    3.0097476      2204118          147  0.007193656   -143.23318   -119.57237 
   37300    9.9975476    2.8848516      2204118          147  0.007193656   -143.45804   -119.79622 
   37400    9.9982677    2.7629428      2204118          147  0.007193656   -143.65522   -119.99169 
   37500    9.9983316    2.6423634      2204118          147  0.007193656   -143.85085   -120.18717 
   37600    9.9977654    2.5235814      2204118          147  0.007193656   -144.03682   -120.37448 
   37700    9.9976162    2.4071431      2204118          147  0.007193656   -144.20493   -120.54294 
   37800    9.9981086    2.2910527      2204118          147  0.007193656   -144.38893   -120.72577 
   37900    9.9983222      2.17735      2204118          147  0.007193656   -144.55475   -120.89109 
   38000    9.9978182    2.0655608      2204118          147  0.007193656   -144.71063   -121.04816 
   38100    9.9974157    1.9557586      2204118          147  0.007193656   -144.85646   -121.19495 
   38200    9.9978227    1.8484859      2204118          147  0.007193656   -144.98388    -121.3214 
   38300    9.9984396    1.7426695      2204118          147  0.007193656   -145.11006   -121.44612 
   38400    9.9983052    1.6387418      2204118          147  0.007193656   -145.22676   -121.56314 
   38500    9.9977324    1.5366902      2204118          147  0.007193656   -145.33421   -121.67194 
   38600    9.9978285    1.4380599      2204118          147  0.007193656   -145.40741   -121.74492 
   38700    9.9985694     1.340789      2204118          147  0.007193656   -145.48062   -121.81638 
   38800    9.9984972    1.2443389      2204118          147  0.007193656    -145.5617   -121.89762 
   38900    9.9976814    1.1492296      2204118          147  0.007193656   -145.64203   -121.97989 
   39000    9.9975344    1.0570319      2204118          147  0.007193656   -145.69635   -122.03455 
   39100    9.9983918   0.96668918      2204118          147  0.007193656   -145.74181   -122.07799 
   39200    9.9989051   0.87704259      2204118          147  0.007193656   -145.79562   -122.13058 
   39300    9.9984617   0.79048544      2204118          147  0.007193656    -145.8162   -122.15221 
   39400     9.998046   0.70440134      2204118          147  0.007193656    -145.8465   -122.18349 
   39500    9.9986119   0.62023251      2204118          147  0.007193656   -145.86184   -122.19749 
   39600    9.9994273   0.53682237      2204118          147  0.007193656   -145.87977   -122.21349 
   39700    9.9992329   0.45456935      2204118          147  0.007193656   -145.89216   -122.22635 
   39800    9.9983651   0.37350211      2204118          147  0.007193656   -145.89904   -122.23528 
   39900    9.9981939   0.29374657      2204118          147  0.007193656   -145.90013   -122.23678 
   40000    9.9988594   0.21539171      2204118          147  0.007193656   -145.89503   -122.23009 
   40100    9.9990963   0.13845809      2204118          147  0.007193656   -145.88331   -122.21782 
   40200    9.9984189  0.062982325      2204118          147  0.007193656   -145.86476   -122.20087 
   40300    9.9979651 -0.010959215      2204118          147  0.007193656   -145.83935   -122.17653 
   40400    9.9986335 -0.082335629      2204118          147  0.007193656   -145.79053   -122.12613 
   40500    9.9994552  -0.15276924      2204118          147  0.007193656   -145.74412   -122.07778 
   40600    9.9991506  -0.22185904      2204118          147  0.007193656   -145.69195   -122.02633 
   40700    9.9983768  -0.29013038      2204118          147  0.007193656    -145.6429   -121.97911 
   40800     9.998438  -0.35702916      2204118          147  0.007193656   -145.58852   -121.92458 
   40900    9.9992675  -0.42257181      2204118          147  0.007193656   -145.52889   -121.86299 
   41000    9.9994678  -0.48732836      2204118          147  0.007193656   -145.47247    -121.8061 
   41100    9.9986872  -0.55078944      2204118          147  0.007193656   -145.41079   -121.74627 
   41200    9.9982388  -0.61084172      2204118          147  0.007193656   -145.30998   -121.64652 
   41300     9.998929   -0.6710047      2204118          147  0.007193656    -145.2294   -121.56431 
   41400    9.9995276  -0.72980907      2204118          147  0.007193656   -145.14349   -121.47697 
   41500    9.9990883   -0.7873276      2204118          147  0.007193656   -145.05242   -121.38694 
   41600    9.9984866  -0.84305581      2204118          147  0.007193656   -144.94812   -121.28407 
   41700    9.9988326  -0.89800317      2204118          147  0.007193656   -144.84776   -121.18289 
   41800    9.9996418  -0.95173865      2204118          147  0.007193656   -144.74317   -121.07638 
   41900    9.9996528   -1.0043723      2204118          147  0.007193656   -144.63463   -120.96782 
   42000     9.998955   -1.0549238      2204118          147  0.007193656   -144.50554   -120.84038 
   42100    9.9987911   -1.1053915      2204118          147  0.007193656   -144.38992   -120.72515 
   42200    9.9994162   -1.1547488      2204118          147  0.007193656   -144.27078   -120.60453 
   42300    9.9997552   -1.2030423      2204118          147  0.007193656   -144.14806   -120.48101 
   42400    9.9991882    -1.250284      2204118          147  0.007193656   -144.02164   -120.35593 
   42500    9.9986348   -1.2969199      2204118          147  0.007193656   -143.89987   -120.23547 
   42600    9.9989725   -1.3413679      2204118          147  0.007193656   -143.75721   -120.09201 
   42700    9.9996176   -1.3846714      2204118          147  0.007193656   -143.61054   -119.94381 
   42800    9.9994856   -1.4268945      2204118          147  0.007193656   -143.45985   -119.79344 
   42900    9.9988467   -1.4690759      2204118          147  0.007193656   -143.32223   -119.65733 
   43000    9.9989213   -1.5086787      2204118          147  0.007193656   -143.15577   -119.49069 
   43100    9.9996655   -1.5477932      2204118          147  0.007193656    -142.9945   -119.32765 
   43200    9.9998878   -1.5865349      2204118          147  0.007193656   -142.83865   -119.17128 
   43300     9.999222   -1.6249614      2204118          147  0.007193656   -142.68823   -119.02244 
   43400    9.9989335   -1.6605315      2204118          147  0.007193656   -142.50136   -118.83625 
   43500    9.9996952   -1.6963295      2204118          147  0.007193656   -142.32932   -118.66241 
   43600    10.000286   -1.7314548      2204118          147  0.007193656   -142.15532   -118.48701 
   43700    9.9999959   -1.7660529      2204118          147  0.007193656   -141.98018   -118.31256 
   43800    9.9995734   -1.8007024      2204118          147  0.007193656   -141.81311   -118.14648 
   43900    9.9999615   -1.8344126      2204118          147  0.007193656   -141.63782   -117.97028 
   44000    10.000592   -1.8687256      2204118          147  0.007193656   -141.47993   -117.81089 
   44100    10.000229   -1.9015469      2204118          147  0.007193656   -141.30513   -117.63696 
   44200    9.9991468   -1.9341952      2204118          147  0.007193656   -141.13786   -117.47225 
   44300    9.9988331   -1.9658908      2204118          147  0.007193656   -140.96871   -117.30384 
   44400    9.9996159   -1.9959567      2204118          147  0.007193656   -140.78864   -117.12192 
   44500    10.000051   -2.0243605      2204118          147  0.007193656   -140.59728   -116.92953 
   44600    9.9993542   -2.0521066      2204118          147  0.007193656   -140.41144   -116.74533 
   44700    9.9987269   -2.0791318      2204118          147  0.007193656    -140.2312   -116.56658 
   44800    9.9992849   -2.1043961      2204118          147  0.007193656   -140.03978   -116.37384 
   44900    10.000321   -2.1285263      2204118          147  0.007193656   -139.84631   -116.17792 
   45000    10.000258   -2.1516923      2204118          147  0.007193656   -139.65129   -115.98304 
   45100    9.9993553   -2.1744965      2204118          147  0.007193656   -139.46359   -115.79748 
   45200    9.9996104   -2.1954897      2204118          147  0.007193656   -139.25919   -115.59248 
   45300    10.000808   -2.2163208      2204118          147  0.007193656     -139.064   -115.39446 
   45400    10.000954   -2.2371465      2204118          147  0.007193656   -138.87811   -115.20822 
   45500    9.9997771   -2.2574811      2204118          147  0.007193656   -138.69303   -115.02593 
   45600     9.999139   -2.2771814      2204118          147  0.007193656   -138.50842   -114.84283 
   45700    9.9999338   -2.2956045      2204118          147  0.007193656   -138.31528    -114.6478 
   45800    10.000639    -2.314247      2204118          147  0.007193656   -138.13845    -114.4693 
   45900    9.9998103   -2.3315468      2204118          147  0.007193656   -137.95187   -114.28469 
   46000    9.9987408   -2.3478838      2204118          147  0.007193656   -137.76373   -114.09908 
   46100    9.9991816    -2.362629      2204118          147  0.007193656    -137.5654   -113.89971 
   46200      10.0003   -2.3768309      2204118          147  0.007193656   -137.37352   -113.70518 
   46300    10.000271   -2.3901235      2204118          147  0.007193656   -137.17981   -113.51154 
   46400    9.9993524   -2.4026114      2204118          147  0.007193656   -136.98488   -113.31878 
   46500    9.9994399   -2.4143797      2204118          147  0.007193656   -136.78971    -113.1234 
   46600    10.000825     -2.42563      2204118          147  0.007193656    -136.5955   -112.92591 
   46700    10.001603   -2.4366624      2204118          147  0.007193656   -136.40346   -112.73203 
   46800     10.00076   -2.4476665      2204118          147  0.007193656   -136.21446   -112.54503 
   46900    9.9998015   -2.4580888      2204118          147  0.007193656   -136.02028   -112.35312 
   47000    10.000309   -2.4677806      2204118          147  0.007193656   -135.82086    -112.1525 
   47100    10.001052   -2.4776278      2204118          147  0.007193656   -135.63198   -111.96185 
   47200    10.000273   -2.4874918      2204118          147  0.007193656   -135.45222   -111.78395 
   47300    9.9988994   -2.4966422      2204118          147  0.007193656   -135.27211   -111.60708 
   47400    9.9991285   -2.5048853      2204118          147  0.007193656   -135.09126   -111.42569 
   47500    10.000755   -2.5117391      2204118          147  0.007193656   -134.90174   -111.23232 
   47600    10.001265   -2.5179023      2204118          147  0.007193656   -134.71263     -111.042 
   47700    9.9999804   -2.5240066      2204118          147  0.007193656   -134.53289   -110.86531 
   47800    9.9994027   -2.5285196      2204118          147  0.007193656   -134.33815   -110.67194 
   47900    10.000696   -2.5334676      2204118          147  0.007193656   -134.16274   -110.49346 
   48000    10.001563   -2.5373909      2204118          147  0.007193656   -133.98094    -110.3096 
   48100    10.000464   -2.5407792      2204118          147  0.007193656   -133.80101   -110.13228 
   48200    9.9988438   -2.5438851      2204118          147  0.007193656    -133.6303    -109.9654 
   48300    9.9991264   -2.5459171      2204118          147  0.007193656   -133.45952   -109.79395 
   48400     10.00038    -2.546767      2204118          147  0.007193656   -133.28729   -109.61876 
   48500    10.000503   -2.5465597      2204118          147  0.007193656   -133.11366   -109.44484 
   48600    9.9997039   -2.5454902      2204118          147  0.007193656   -132.93981   -109.27288 
   48700    10.000236   -2.5433069      2204118          147  0.007193656    -132.7599   -109.09171 
   48800     10.00221   -2.5403688      2204118          147  0.007193656   -132.57673   -108.90387 
   48900    10.002266   -2.5379467      2204118          147  0.007193656   -132.40702   -108.73402 
   49000    10.000059   -2.5360142      2204118          147  0.007193656   -132.25014   -108.58237 
   49100    9.9990064   -2.5342916      2204118          147  0.007193656   -132.10526   -108.43998 
   49200     10.00072   -2.5315916      2204118          147  0.007193656   -131.95498   -108.28565 
   49300     10.00213    -2.527977      2204118          147  0.007193656   -131.79875   -108.12608 
   49400    10.000747   -2.5245074      2204118          147  0.007193656   -131.65324   -107.98384 
   49500    9.9985534   -2.5204499      2204118          147  0.007193656   -131.50902   -107.84481 
   49600    9.9990313   -2.5155422      2204118          147  0.007193656   -131.36544    -107.7001 
   49700    10.001438   -2.5098244      2204118          147  0.007193656   -131.22263    -107.5516 
   49800    10.001957   -2.5030875      2204118          147  0.007193656    -131.0728   -107.40053 
   49900     10.00027   -2.4960965      2204118          147  0.007193656   -130.92604   -107.25776 
   50000     9.999657   -2.4889259      2204118          147  0.007193656   -130.78358   -107.11676 
   50100    10.001593   -2.4816866      2204118          147  0.007193656   -130.64671   -106.97531 
   50200    10.002652   -2.4745181      2204118          147  0.007193656   -130.51489   -106.84099 
   50300    10.000988   -2.4674171      2204118          147  0.007193656   -130.38805   -106.71808 
   50400     9.998793   -2.4605469      2204118          147  0.007193656   -130.27285   -106.60808 
   50500    9.9992932   -2.4525313      2204118          147  0.007193656   -130.15105   -106.48509 
   50600    10.001335   -2.4437658      2204118          147  0.007193656   -130.03017   -106.35938 
   50700    10.001125   -2.4342632      2204118          147  0.007193656   -129.90925   -106.23895 
   50800    9.9985626   -2.4238616      2204118          147  0.007193656   -129.78704   -106.12281 
   50900    9.9978106    -2.412811      2204118          147  0.007193656   -129.67162   -106.00917 
   51000    10.000089   -2.4006066      2204118          147  0.007193656   -129.55431   -105.88646 
   51100     10.00208   -2.3871938      2204118          147  0.007193656    -129.4281   -105.75555 
   51200    10.001475   -2.3736798      2204118          147  0.007193656   -129.30448   -105.63335 
   51300    10.000424   -2.3604896      2204118          147  0.007193656   -129.18658   -105.51795 
   51400    10.001622   -2.3469087      2204118          147  0.007193656   -129.06001   -105.38854 
   51500    10.003777     -2.33632      2204118          147  0.007193656   -128.97767    -105.3011 
   51600    10.002759   -2.3262667      2204118          147  0.007193656   -128.89583   -105.22167 
   51700    9.9997553   -2.3169164      2204118          147  0.007193656   -128.82152   -105.15447 
   51800    9.9987901   -2.3075953      2204118          147  0.007193656   -128.75178   -105.08701 
   51900    10.000506   -2.2967395      2204118          147  0.007193656   -128.66688   -104.99805 
   52000     10.00115   -2.2855708      2204118          147  0.007193656   -128.58983   -104.91948 
   52100    9.9986336   -2.2732382      2204118          147  0.007193656   -128.50936   -104.84496 
   52200    9.9965464   -2.2603135      2204118          147  0.007193656   -128.44054   -104.78108 
   52300    9.9985034   -2.2445976      2204118          147  0.007193656   -128.34986   -104.68577 
   52400    10.001624   -2.2274601      2204118          147  0.007193656   -128.25534   -104.58387 
   52500    10.001421   -2.2105407      2204118          147  0.007193656   -128.17609   -104.50509 
   52600    9.9991074   -2.1922225      2204118          147  0.007193656   -128.08072    -104.4152 
   52700    9.9996042   -2.1737507      2204118          147  0.007193656   -127.98904   -104.32235 
   52800    10.002638   -2.1554492      2204118          147  0.007193656   -127.90256   -104.22868 
   52900    10.003465   -2.1377454      2204118          147  0.007193656   -127.82238   -104.14654 
   53000    10.000607   -2.1207516      2204118          147  0.007193656   -127.74827    -104.0792 
   53100    9.9989987   -2.1052524      2204118          147  0.007193656   -127.69752   -104.03226 
   53200    10.001004   -2.0894849      2204118          147  0.007193656   -127.64369   -103.97368 
   53300    10.002901   -2.0745053      2204118          147  0.007193656   -127.60276   -103.92826 
   53400    10.001242   -2.0577925      2204118          147  0.007193656   -127.53175   -103.86118 
   53500    9.9985451   -2.0431256      2204118          147  0.007193656   -127.49759    -103.8334 
   53600    9.9989051   -2.0280812      2204118          147  0.007193656   -127.46511   -103.80006 
   53700    10.001484   -2.0120594      2204118          147  0.007193656   -127.42518   -103.75404 
   53800    10.001763   -1.9946756      2204118          147  0.007193656   -127.36889   -103.69709 
   53900    9.9993276    -1.978959      2204118          147  0.007193656    -127.3472   -103.68116 
   54000     9.998147   -1.9616294      2204118          147  0.007193656   -127.30892   -103.64567 
   54100    10.000494   -1.9431744      2204118          147  0.007193656   -127.26327   -103.59446 
   54200    10.002909   -1.9254504      2204118          147  0.007193656   -127.23706   -103.56255 
   54300    10.001766   -1.9077615      2204118          147  0.007193656   -127.21476   -103.54295 
   54400    9.9989943   -1.8894959      2204118          147  0.007193656    -127.1878   -103.52255 
   54500    9.9991179   -1.8703129      2204118          147  0.007193656   -127.15576   -103.49022 
   54600    10.001473    -1.852039      2204118          147  0.007193656   -127.15116   -103.48004 
   54700    10.001569   -1.8320819      2204118          147  0.007193656   -127.13026   -103.45892 
   54800    9.9987381   -1.8107444      2204118          147  0.007193656   -127.10011   -103.43547 
   54900    9.9975762   -1.7892063      2204118          147  0.007193656   -127.08559   -103.42369 
   55000    9.9999879    -1.765324      2204118          147  0.007193656   -127.05268   -103.38508 
   55100    10.002204   -1.7399052      2204118          147  0.007193656   -127.01066   -103.33781 
   55200    10.000829   -1.7153205      2204118          147  0.007193656   -126.99436   -103.32476 
   55300    9.9983487   -1.6895722      2204118          147  0.007193656    -126.9704   -103.30667 
   55400    9.9993898   -1.6621193      2204118          147  0.007193656   -126.93169    -103.2655 
   55500    10.002022   -1.6372002      2204118          147  0.007193656   -126.94526   -103.27284 
   55600    10.002176   -1.6101254      2204118          147  0.007193656   -126.92765   -103.25486 
   55700    9.9995228   -1.5830692      2204118          147  0.007193656   -126.91245   -103.24595 
   55800    9.9985268   -1.5564502      2204118          147  0.007193656   -126.90813   -103.24399 
   55900    10.001023    -1.528277      2204118          147  0.007193656   -126.88121   -103.21115 
   56000    10.003081   -1.5024485      2204118          147  0.007193656   -126.89172   -103.21679 
   56100    10.001139   -1.4766773      2204118          147  0.007193656   -126.89712   -103.22679 
   56200    9.9986485   -1.4519018      2204118          147  0.007193656   -126.91486   -103.25043 
   56300    9.9995506   -1.4263494      2204118          147  0.007193656   -126.91878   -103.25221 
   56400    10.002103   -1.3999698      2204118          147  0.007193656   -126.90826   -103.23566 
   56500    10.001482   -1.3752811      2204118          147  0.007193656   -126.92425   -103.25311 
   56600    9.9978747   -1.3503789      2204118          147  0.007193656   -126.93893   -103.27633 
   56700    9.9964763   -1.3246257      2204118          147  0.007193656   -126.94973   -103.29044 
   56800    9.9991147   -1.2966584      2204118          147  0.007193656   -126.93821   -103.27267 
   56900    10.001468   -1.2692051      2204118          147  0.007193656   -126.94706   -103.27596 
   57000    9.9998225   -1.2405821      2204118          147  0.007193656    -126.9432   -103.27599 
   57100    9.9978838   -1.2100482      2204118          147  0.007193656   -126.91233   -103.24971 
   57200    10.000409   -1.1800517      2204118          147  0.007193656   -126.89242   -103.22382 
   57300    10.004573   -1.1513499      2204118          147  0.007193656   -126.88748   -103.20902 
   57400    10.004599   -1.1241526      2204118          147  0.007193656   -126.89279   -103.21427 
   57500    9.9999894   -1.0993856      2204118          147  0.007193656    -126.9238   -103.25619 
   57600     9.997643   -1.0737685      2204118          147  0.007193656   -126.93576   -103.27371 
   57700    10.000502   -1.0471267      2204118          147  0.007193656   -126.93427   -103.26545 
   57800    10.002615   -1.0227522      2204118          147  0.007193656   -126.97536   -103.30154 
   57900    9.9993311   -0.9968458      2204118          147  0.007193656   -126.99677   -103.33072 
   58000    9.9957331  -0.96889584      2204118          147  0.007193656   -126.99715   -103.33962 
   58100    9.9977894  -0.94105633      2204118          147  0.007193656   -127.01851   -103.35611 
   58200    10.002037  -0.91045048      2204118          147  0.007193656   -127.01021   -103.33776 
   58300    10.000798  -0.87992579      2204118          147  0.007193656   -127.01307   -103.34355 
   58400    9.9957781   -0.8468461      2204118          147  0.007193656    -126.9837   -103.32606 
   58500    9.9957071  -0.81511545      2204118          147  0.007193656   -126.99047     -103.333 
   58600    10.002326  -0.78351625      2204118          147  0.007193656   -127.00412   -103.33098 
   58700    10.007574   -0.7529917      2204118          147  0.007193656   -127.01646    -103.3309 
   58800    10.005761  -0.72481358      2204118          147  0.007193656   -127.02804   -103.34677 
   58900    10.000587   -0.7006152      2204118          147  0.007193656   -127.06601   -103.39699 
   59000    9.9982103  -0.67843643      2204118          147  0.007193656   -127.11461   -103.45121 
   59100    9.9988559  -0.65459661      2204118          147  0.007193656   -127.12932    -103.4644 
   59200    9.9995808  -0.63435025      2204118          147  0.007193656   -127.20652   -103.53988 
   59300    9.9987649  -0.61140986      2204118          147  0.007193656   -127.24355   -103.57884 
   59400     9.998611  -0.58798711      2204118          147  0.007193656    -127.2766   -103.61225 
   59500    10.000575  -0.56547096      2204118          147  0.007193656   -127.32596   -103.65697 
   59600    10.001931   -0.5421989      2204118          147  0.007193656   -127.35943   -103.68723 
   59700    10.000766  -0.51780067      2204118          147  0.007193656   -127.36963   -103.70018 
   59800    9.9984164   -0.4945293      2204118          147  0.007193656   -127.39697   -103.73308 
   59900    9.9986672  -0.47105608      2204118          147  0.007193656   -127.42414   -103.75966 
   60000    10.000954  -0.44729613      2204118          147  0.007193656   -127.45068   -103.78079 
   60100    10.001253   -0.4237971      2204118          147  0.007193656   -127.48464   -103.81404 
   60200    9.9984986  -0.39927039      2204118          147  0.007193656   -127.50748    -103.8434 
   60300    9.9964155  -0.37358109      2204118          147  0.007193656   -127.52509   -103.86594 
   60400    9.9976901  -0.34565378      2204118          147  0.007193656   -127.52666    -103.8645 
   60500    9.9996525  -0.31639061      2204118          147  0.007193656   -127.52765   -103.86084 
   60600      9.99911  -0.28452912      2204118          147  0.007193656   -127.50303   -103.83751 
   60700    9.9980934  -0.25306754      2204118          147  0.007193656   -127.49825   -103.83513 
   60800    10.000033  -0.22171248      2204118          147  0.007193656   -127.50117   -103.83346 
   60900    10.003898  -0.18953339      2204118          147  0.007193656   -127.48424   -103.80738 
   61000    10.004677  -0.15959083      2204118          147  0.007193656   -127.48552   -103.80682 
   61100    10.001569  -0.13276519      2204118          147  0.007193656     -127.515   -103.84365 
   61200    9.9992471  -0.10563532      2204118          147  0.007193656   -127.52029   -103.85444 
   61300    10.000944 -0.079730716      2204118          147  0.007193656   -127.53328   -103.86341 
   61400    10.002773 -0.055303653      2204118          147  0.007193656   -127.55957   -103.88537 
   61500    10.000731 -0.032666609      2204118          147  0.007193656   -127.60506    -103.9357 
   61600    9.9976939 -0.010878095      2204118          147  0.007193656   -127.65967    -103.9975 
   61700    9.9984287  0.012546345      2204118          147  0.007193656   -127.68858   -104.02467 
   61800     10.00157  0.035625614      2204118          147  0.007193656    -127.7253   -104.05395 
   61900    10.001856  0.058109996      2204118          147  0.007193656   -127.76989   -104.09786 
   62000    9.9993338  0.081382241      2204118          147  0.007193656   -127.79845   -104.13239 
   62100    9.9985837   0.10454295      2204118          147  0.007193656   -127.82879   -104.16451 
   62200    10.001071   0.12866101      2204118          147  0.007193656   -127.84464   -104.17447 
   62300    10.002404   0.15208726      2204118          147  0.007193656    -127.8708   -104.19748 
   62400    10.000017   0.17575801      2204118          147  0.007193656   -127.88941   -104.22174 
   62500    9.9980761   0.19819042      2204118          147  0.007193656    -127.9262   -104.26312 
   62600    10.000368   0.21985567      2204118          147  0.007193656   -127.97426   -104.30576 
   62700     10.00268   0.24214398      2204118          147  0.007193656   -128.00724   -104.33327 
   62800    10.000669   0.26556909      2204118          147  0.007193656   -128.01541   -104.34619 
   62900     9.997303   0.28693334      2204118          147  0.007193656   -128.05679   -104.39554 
   63000    9.9980615   0.30960943      2204118          147  0.007193656   -128.07999   -104.41695 
   63100    10.002257   0.33032389      2204118          147  0.007193656   -128.13744   -104.46447 
   63200    10.003317   0.35115571      2204118          147  0.007193656   -128.18839   -104.51291 
   63300    9.9989551   0.37272893      2204118          147  0.007193656   -128.22284   -104.55768 
   63400    9.9955434   0.39585334      2204118          147  0.007193656   -128.23802   -104.58094 
   63500    9.9973833   0.41986659      2204118          147  0.007193656   -128.25529   -104.59385 
   63600    9.9995784   0.44413285      2204118          147  0.007193656   -128.28651   -104.61987 
   63700    9.9977076   0.47169655      2204118          147  0.007193656   -128.27889   -104.61668 
   63800    9.9952278   0.49894359      2204118          147  0.007193656   -128.29257   -104.63623 
   63900    9.9967859   0.52815316      2204118          147  0.007193656   -128.28648   -104.62645 
   64000    10.001297   0.55783453      2204118          147  0.007193656   -128.27339   -104.60269 
   64100    10.003509   0.58693415      2204118          147  0.007193656   -128.25148   -104.57554 
   64200    10.002644   0.61338505      2204118          147  0.007193656   -128.23758   -104.56369 
   64300    10.002937   0.63656419      2204118          147  0.007193656   -128.23098    -104.5564 
   64400    10.005726   0.65431078      2204118          147  0.007193656   -128.26223   -104.58105 
   64500    10.005619   0.66781882      2204118          147  0.007193656   -128.31262   -104.63169 
   64600    9.9991916    0.6781282      2204118          147  0.007193656   -128.38035   -104.71463 
   64700    9.9924498   0.68946735      2204118          147  0.007193656   -128.42643   -104.77667 
   64800    9.9916294   0.70409109      2204118          147  0.007193656   -128.44489   -104.79707 
   64900     9.994444   0.72152911      2204118          147  0.007193656   -128.45917   -104.80469 
   65000    9.9958657   0.74328415      2204118          147  0.007193656   -128.44328   -104.78543 
   65100    9.9956363   0.76877252      2204118          147  0.007193656   -128.39467   -104.73736 
   65200    9.9989741   0.79754304      2204118          147  0.007193656   -128.30158   -104.63638 
   65300    10.006079   0.82380688      2204118          147  0.007193656   -128.23106   -104.54904 
   65400    10.010698   0.84454979      2204118          147  0.007193656   -128.19928   -104.50633 
   65500    10.009185   0.85824216      2204118          147  0.007193656   -128.20963   -104.52026 
   65600    10.003812    0.8660458      2204118          147  0.007193656   -128.24431   -104.56766 
   65700    9.9988896   0.86725972      2204118          147  0.007193656   -128.34065   -104.67565 
   65800    9.9948106   0.87059129      2204118          147  0.007193656   -128.39189   -104.73654 
   65900    9.9903878   0.87550501      2204118          147  0.007193656   -128.44285   -104.79796 
   66000    9.9900722   0.88833614      2204118          147  0.007193656   -128.40892   -104.76479 
   66100    9.9975841   0.90305202      2204118          147  0.007193656   -128.38375   -104.72183 
   66200    10.006304   0.91786633      2204118          147  0.007193656   -128.36744   -104.68488 
   66300    10.005235   0.93311731      2204118          147  0.007193656   -128.32822    -104.6482 
   66400    9.9963517   0.94659614      2204118          147  0.007193656   -128.30034   -104.64134 
   66500    9.9941687   0.96056475      2204118          147  0.007193656   -128.25707   -104.60324 
   66600    10.002983   0.97426948      2204118          147  0.007193656    -128.2085   -104.53381 
   66700    10.011164   0.98421001      2204118          147  0.007193656   -128.18909   -104.49504 
   66800    10.009227   0.98915589      2204118          147  0.007193656   -128.19425   -104.50478 
   66900    10.000693   0.98919107      2204118          147  0.007193656    -128.2248   -104.55552 
   67000    9.9940745   0.98822748      2204118          147  0.007193656   -128.24708   -104.59348 
   67100    9.9941931   0.98821057      2204118          147  0.007193656   -128.26008   -104.60619 
   67200    9.9993492   0.98922698      2204118          147  0.007193656   -128.26805   -104.60196 
   67300    10.003213   0.98995926      2204118          147  0.007193656   -128.27776   -104.60253 
   67400    10.001563   0.98867527      2204118          147  0.007193656   -128.30418   -104.63285 
   67500    9.9975566   0.98625521      2204118          147  0.007193656   -128.33133   -104.66948 
   67600    9.9985924   0.98322797      2204118          147  0.007193656   -128.35255   -104.68825 
   67700    10.005447   0.97864035      2204118          147  0.007193656   -128.37495   -104.69443 
   67800    10.009463   0.97261791      2204118          147  0.007193656   -128.38143   -104.69141 
   67900    10.004163   0.95994496      2204118          147  0.007193656   -128.45743   -104.77994 
   68000     9.995531   0.94648198      2204118          147  0.007193656    -128.5268   -104.86975 
   68100     9.993819   0.93428992      2204118          147  0.007193656     -128.586   -104.93299 
   68200    9.9969343   0.92486815      2204118          147  0.007193656   -128.62943   -104.96905 
   68300    9.9960669   0.91972932      2204118          147  0.007193656   -128.63865   -104.98032 
   68400    9.9914688   0.91916132      2204118          147  0.007193656   -128.61024   -104.96279 
   68500    9.9929981   0.92095613      2204118          147  0.007193656    -128.5755   -104.92444 
   68600    10.002706   0.92544546      2204118          147  0.007193656   -128.50514    -104.8311 
   68700    10.009975   0.92629081      2204118          147  0.007193656   -128.46608   -104.77484 
   68800    10.007612   0.92386905      2204118          147  0.007193656   -128.42189   -104.73625 
   68900    10.002331   0.91485806      2204118          147  0.007193656   -128.42268   -104.74953 
   69000    10.001809   0.90072439      2204118          147  0.007193656    -128.4564   -104.78449 
   69100    10.003526   0.88264465      2204118          147  0.007193656   -128.52195   -104.84598 
   69200    9.9998044   0.86478528      2204118          147  0.007193656     -128.572   -104.90484 
   69300    9.9920247   0.84720937      2204118          147  0.007193656   -128.63505   -104.98629 
   69400    9.9895424   0.83447486      2204118          147  0.007193656   -128.66674   -105.02386 
   69500    9.9937591   0.82972227      2204118          147  0.007193656   -128.63385   -104.98099 
   69600    9.9959362   0.82976908      2204118          147  0.007193656   -128.59099   -104.93297 
   69700    9.9933207   0.83501919      2204118          147  0.007193656   -128.52384   -104.87201 
   69800    9.9943922   0.84601105      2204118          147  0.007193656   -128.41007   -104.75571 
   69900      10.0026    0.8592906      2204118          147  0.007193656   -128.28126   -104.60748 
   70000    10.008752   0.86947072      2204118          147  0.007193656   -128.19276   -104.50441 
   70100    10.005319    0.8770911      2204118          147  0.007193656   -128.11038   -104.43016 
   70200    9.9997492   0.87948095      2204118          147  0.007193656   -128.07267   -104.40563 
   70300    10.002633   0.88010561      2204118          147  0.007193656   -128.02372   -104.34986 
   70400    10.009243    0.8755565      2204118          147  0.007193656   -128.01452   -104.32502 
   70500    10.007791   0.86919297      2204118          147  0.007193656   -127.98429   -104.29822 
   70600    9.9987087   0.85747291      2204118          147  0.007193656   -128.00344   -104.33886 
   70700    9.9943127   0.84503255      2204118          147  0.007193656   -128.02115   -104.36698 
   70800    9.9983817   0.83328207      2204118          147  0.007193656   -128.03567   -104.37187 
   70900    10.001046   0.82264853      2204118          147  0.007193656     -128.047   -104.37689 
   71000    9.9970948    0.8127709      2204118          147  0.007193656   -128.06159   -104.40083 
   71100    9.9950242   0.80627105      2204118          147  0.007193656   -128.03382   -104.37797 
   71200    10.001865   0.79980156      2204118          147  0.007193656   -128.00749   -104.33544 
   71300    10.009293   0.79096404      2204118          147  0.007193656   -128.00017   -104.31054 
   71400    10.005446   0.78031284      2204118          147  0.007193656   -127.98839   -104.30787 
   71500    9.9953598   0.76721446      2204118          147  0.007193656   -127.99342   -104.33677 
   71600    9.9934671   0.75351157      2204118          147  0.007193656   -128.00792   -104.35575 
   71700    10.000637   0.74034192      2204118          147  0.007193656   -128.02534    -104.3562 
   71800    10.002936    0.7284423      2204118          147  0.007193656   -128.03208    -104.3575 
   71900     9.995523    0.7176172      2204118          147  0.007193656    -128.0339   -104.37686 
   72000    9.9913789   0.70896293      2204118          147  0.007193656   -128.02361   -104.37639 
   72100    9.9991857    0.7007292      2204118          147  0.007193656   -128.03136   -104.36565 
   72200    10.007703   0.69410213      2204118          147  0.007193656   -128.02033   -104.33446 
   72300    10.003041   0.68865756      2204118          147  0.007193656   -127.98353    -104.3087 
   72400    9.9916718       0.6838      2204118          147  0.007193656   -127.94235   -104.29443 
   72500    9.9904586   0.68083513      2204118          147  0.007193656   -127.89871   -104.25366 
   72600    10.000128   0.68130403      2204118          147  0.007193656   -127.83186   -104.16392 
   72700    10.005718   0.68439349      2204118          147  0.007193656   -127.73714   -104.05598 
   72800    10.000667   0.68592125      2204118          147  0.007193656   -127.66504   -103.99583 
   72900    9.9963234   0.68599628      2204118          147  0.007193656   -127.60659   -103.94766 
   73000    10.002118   0.68538576      2204118          147  0.007193656   -127.54225    -103.8696 
   73100    10.010027   0.68114978      2204118          147  0.007193656   -127.50226    -103.8109 
   73200    10.008569    0.6721234      2204118          147  0.007193656   -127.48344   -103.79553 
   73300    10.003759   0.65753725      2204118          147  0.007193656   -127.48729   -103.81076 
   73400    10.007416   0.63502733      2204118          147  0.007193656   -127.54968    -103.8645 
   73500    10.013689   0.60598378      2204118          147  0.007193656   -127.64626   -103.94623 
   73600    10.007028   0.57166811      2204118          147  0.007193656    -127.7715   -104.08724 
   73700    9.9902085   0.53585474      2204118          147  0.007193656   -127.90981   -104.26535 
   73800    9.9830505   0.50416226      2204118          147  0.007193656   -128.02865   -104.40113 
   73900    9.9917014   0.47973719      2204118          147  0.007193656   -128.11159   -104.46359 
   74000    10.000133   0.46270168      2204118          147  0.007193656   -128.15462   -104.48667 
   74100    9.9963091   0.45370986      2204118          147  0.007193656    -128.1301    -104.4712 
   74200    9.9903551   0.44750975      2204118          147  0.007193656   -128.11597   -104.47117 
   74300     9.996495   0.44636978      2204118          147  0.007193656   -128.06478   -104.40545 
   74400    10.008468   0.44597935      2204118          147  0.007193656   -128.02186   -104.33419 
   74500    10.009253   0.44439654      2204118          147  0.007193656   -127.98766   -104.29813 
   74600    9.9991635   0.44081089      2204118          147  0.007193656   -127.96687   -104.30122 
   74700    9.9941399   0.43593479      2204118          147  0.007193656   -127.96484   -104.31107 
   74800    9.9991932   0.43207242      2204118          147  0.007193656   -127.96336   -104.29763 
   74900    10.001173   0.43065204      2204118          147  0.007193656   -127.94944   -104.27903 
   75000    9.9925206   0.43519169      2204118          147  0.007193656   -127.87741   -104.22748 
   75100    9.9846599   0.44332441      2204118          147  0.007193656   -127.80598   -104.17466 
   75200    9.9902054   0.45760758      2204118          147  0.007193656   -127.69957   -104.05512 
   75300    10.002312   0.47712991      2204118          147  0.007193656   -127.54807   -103.87496 
   75400    10.006698   0.49639099      2204118          147  0.007193656   -127.39408   -103.71059 
   75500    10.005196   0.51032669      2204118          147  0.007193656    -127.2722   -103.59227 
   75600    10.010845   0.51657902      2204118          147  0.007193656   -127.17808   -103.48478 
   75700    10.022557    0.5091378      2204118          147  0.007193656   -127.16933   -103.44831 
   75800    10.023895   0.48729507      2204118          147  0.007193656   -127.23016   -103.50597 
   75900    10.009663   0.45143722      2204118          147  0.007193656   -127.36924   -103.67874 
[...]
  381700    10.157593   0.04336752      2204118          147  0.007193656   -81.124903   -57.084285 
  381800    10.419636  0.046577595      2204118          147  0.007193656   -81.172618   -56.511807 
  381900    9.8115978   0.02418059      2204118          147  0.007193656   -81.103784   -57.882056 
  382000    9.5498558  0.025392282      2204118          147  0.007193656   -80.989578   -58.387331 
  382100    9.8579976  0.051554849      2204118          147  0.007193656    -80.91698   -57.585434 
  382200    10.075251  0.068765964      2204118          147  0.007193656   -80.912598   -57.066865 
  382300    10.094544  0.081341761      2204118          147  0.007193656   -80.852008   -56.960612 
  382400    9.8278356   0.08405974      2204118          147  0.007193656   -80.782775   -57.522615 
  382500    9.4080655  0.084794517      2204118          147  0.007193656   -80.673575   -58.406912 
  382600    9.8905859   0.13035556      2204118          147  0.007193656    -80.57124   -57.162566 
  382700    10.256132   0.17366705      2204118          147  0.007193656   -80.435258   -56.161423 
  382800    10.019202   0.18993507      2204118          147  0.007193656   -80.264598    -56.55152 
  382900    9.6993488   0.19644812      2204118          147  0.007193656   -80.130936   -57.174874 
  383000    9.9371347   0.21859087      2204118          147  0.007193656   -80.049134   -56.530289 
  383100    10.562381   0.24063995      2204118          147  0.007193656   -80.084489   -55.085834 
  383200    10.178012   0.19843056      2204118          147  0.007193656   -80.174161   -56.085218 
  383300    9.8644722   0.14900618      2204118          147  0.007193656   -80.302488   -56.955618 
  383400    9.9528681   0.11442712      2204118          147  0.007193656   -80.466041   -56.909959 
  383500    10.115375  0.089005505      2204118          147  0.007193656    -80.59127   -56.650574 
  383600    10.121426  0.067387561      2204118          147  0.007193656   -80.603341   -56.648323 
  383700    9.7629306  0.024429618      2204118          147  0.007193656   -80.674418   -57.567873 
  383800    9.7285211 -0.011507972      2204118          147  0.007193656    -80.82079   -57.795684 
  383900    10.259242 -0.026411292      2204118          147  0.007193656   -81.063983   -56.782787 
  384000    10.422604 -0.044541597      2204118          147  0.007193656   -81.201169   -56.533334 
  384100    9.6648011 -0.085016954      2204118          147  0.007193656   -81.204761   -58.330466 
  384200    9.6338363 -0.070747927      2204118          147  0.007193656   -81.118101   -58.317092 
  384300     9.967174 -0.018197559      2204118          147  0.007193656   -80.887746   -57.297806 
  384400    10.125454  0.034046488      2204118          147  0.007193656    -80.65526   -56.690709 
  384500    10.028984  0.076404095      2204118          147  0.007193656   -80.397602   -56.661371 
  384600    9.7765626   0.10077464      2204118          147  0.007193656   -80.209159    -57.07035 
  384700    9.6929456    0.1118409      2204118          147  0.007193656   -80.208828   -57.267922 
  384800     10.21121   0.14428755      2204118          147  0.007193656   -80.199579   -56.032063 
  384900    10.365684   0.15331055      2204118          147  0.007193656     -80.2489    -55.71578 
  385000    9.8103517   0.13047412      2204118          147  0.007193656   -80.295622   -57.076843 
  385100    9.6556795   0.13265491      2204118          147  0.007193656   -80.290791   -57.438085 
  385200    9.9201445   0.15917532      2204118          147  0.007193656    -80.24398   -56.765347 
  385300    10.047491   0.18138021      2204118          147  0.007193656   -80.187944   -56.407912 
  385400    10.035218   0.19727594      2204118          147  0.007193656   -80.170076   -56.419091 
  385500    9.9029722    0.2131751      2204118          147  0.007193656   -80.101283   -56.663293 
  385600    9.7232365   0.22650669      2204118          147  0.007193656   -80.059886   -57.047287 
  385700    9.9897617   0.26617769      2204118          147  0.007193656    -79.95271   -56.309309 
  385800    10.351923   0.31190538      2204118          147  0.007193656   -79.863232   -55.362681 
  385900     10.05165   0.33103564      2204118          147  0.007193656   -79.733055   -55.943181 
  386000    9.4706481   0.33416268      2204118          147  0.007193656   -79.622392   -57.207611 
  386100    9.8516597   0.37728638      2204118          147  0.007193656   -79.506875   -56.190329 
  386200    10.375301   0.41122356      2204118          147  0.007193656   -79.497422   -54.941542 
  386300    10.076878   0.38838852      2204118          147  0.007193656   -79.564084     -55.7145 
  386400     9.788268   0.34392915      2204118          147  0.007193656   -79.763357   -56.596844 
  386500    9.9124633   0.30197936      2204118          147  0.007193656   -80.077599   -56.617146 
  386600    10.383894   0.27631247      2204118          147  0.007193656   -80.387344   -55.811125 
  386700    10.454721   0.24408503      2204118          147  0.007193656   -80.637791   -55.893942 
  386800    9.7369565   0.19731287      2204118          147  0.007193656   -80.669406   -57.624336 
  386900    9.7710104   0.18738309      2204118          147  0.007193656    -80.74736   -57.621692 
  387000    10.200494   0.19570069      2204118          147  0.007193656   -80.828565   -56.686412 
  387100    10.294122   0.19314704      2204118          147  0.007193656   -80.842332   -56.478584 
  387200    9.4979827   0.14954274      2204118          147  0.007193656   -80.869726   -58.390251 
  387300     9.523547   0.14343007      2204118          147  0.007193656   -80.946788   -58.406807 
  387400    10.013549   0.16316628      2204118          147  0.007193656   -80.964766   -57.265067 
  387500    10.182366   0.16904011      2204118          147  0.007193656   -80.997285   -56.898035 
  387600    9.9674895   0.16696182      2204118          147  0.007193656    -80.93996   -57.349272 
  387700     9.499586   0.15717728      2204118          147  0.007193656   -80.884152   -58.400882 
  387800    9.5303542   0.17636214      2204118          147  0.007193656   -80.760604   -58.204513 
  387900    10.274498   0.22223226      2204118          147  0.007193656   -80.731315   -56.414011 
  388000    10.207248   0.22755796      2204118          147  0.007193656   -80.659488   -56.501349 
  388100    9.7914614   0.20537395      2204118          147  0.007193656   -80.684425   -57.510355 
  388200    9.7369084    0.1933514      2204118          147  0.007193656   -80.772922   -57.727966 
  388300    10.449565   0.22226938      2204118          147  0.007193656   -80.822679   -56.091035 
  388400     10.55612   0.23433345      2204118          147  0.007193656   -80.800581   -55.816745 
  388500     10.02673   0.23049345      2204118          147  0.007193656   -80.675426   -56.944531 
  388600     9.856379   0.24416274      2204118          147  0.007193656   -80.560989   -57.233274 
  388700    10.004966   0.25926085      2204118          147  0.007193656   -80.552129   -56.872744 
  388800    10.371886   0.27133231      2204118          147  0.007193656   -80.631911   -56.084113 
  388900    10.283902   0.25613577      2204118          147  0.007193656   -80.757091    -56.41753 
  389000    9.6193514   0.21624921      2204118          147  0.007193656   -80.834041   -58.067315 
  389100    9.7882785   0.21536316      2204118          147  0.007193656   -80.927795   -57.761258 
  389200    10.258423   0.23610967      2204118          147  0.007193656   -80.923734   -56.644475 
  389300    10.206442   0.22999468      2204118          147  0.007193656   -81.005633   -56.849401 
  389400    9.7561509   0.20806639      2204118          147  0.007193656   -81.067199     -57.9767 
  389500    9.4615541   0.19317568      2204118          147  0.007193656   -81.114309   -58.721051 
  389600     9.667433   0.19693409      2204118          147  0.007193656   -81.210035   -58.329511 
  389700    10.337029   0.22606329      2204118          147  0.007193656   -81.269735   -56.804434 
  389800    10.270368   0.22983362      2204118          147  0.007193656   -81.248317   -56.940789 
  389900    9.7308622   0.21558075      2204118          147  0.007193656   -81.227936   -58.197289 
  390000    9.7237605   0.23244268      2204118          147  0.007193656   -81.135084   -58.121246 
  390100    10.282098   0.27262882      2204118          147  0.007193656   -81.097108   -56.761818 
  390200    10.348354   0.28420659      2204118          147  0.007193656   -81.130506   -56.638403 
  390300     10.06662   0.27642141      2204118          147  0.007193656   -81.179704   -57.354398 
  390400    9.9930244   0.27333822      2204118          147  0.007193656   -81.273711   -57.622589 
  390500     9.964765   0.26826329      2204118          147  0.007193656    -81.40752   -57.823281 
  390600    9.9579973   0.26242654      2204118          147  0.007193656   -81.585348   -58.017127 
  390700    9.9564437   0.26721038      2204118          147  0.007193656   -81.664198   -58.099654 
  390800     9.994663   0.28612563      2204118          147  0.007193656   -81.653342   -57.998342 
  390900    10.073741   0.31876864      2204118          147  0.007193656    -81.55049   -57.708331 
  391000    10.080019    0.3512151      2204118          147  0.007193656   -81.445288   -57.588272 
  391100    9.9181195   0.37593781      2204118          147  0.007193656   -81.323498   -57.849658 
  391200    9.7794157   0.39688213      2204118          147  0.007193656   -81.241655   -58.096094 
  391300    10.074255   0.43801058      2204118          147  0.007193656   -81.158648   -57.315272 
  391400    10.413006    0.4820145      2204118          147  0.007193656   -81.084052   -56.438932 
  391500    9.9706141   0.49062449      2204118          147  0.007193656   -80.931833   -57.333751 
  391600    9.4802769    0.4809269      2204118          147  0.007193656   -80.876386   -58.438815 
  391700    9.8188147   0.48930516      2204118          147  0.007193656   -80.963689    -57.72488 
  391800    10.088996   0.47845738      2204118          147  0.007193656   -81.141236   -57.262971 
  391900    10.120278   0.45426129      2204118          147  0.007193656   -81.265829   -57.313528 
  392000    9.8351272   0.41241067      2204118          147  0.007193656   -81.437831   -58.160415 
  392100    9.4745455   0.37571203      2204118          147  0.007193656   -81.523126   -59.099121 
  392200     9.912457   0.38310991      2204118          147  0.007193656    -81.57828   -58.117842 
  392300    10.446177   0.40063129      2204118          147  0.007193656   -81.616677   -56.893049 
  392400    10.049732   0.38347274      2204118          147  0.007193656   -81.582024   -57.796688 
  392500    9.6950509   0.37392415      2204118          147  0.007193656   -81.542755   -58.596866 
  392600    9.8871311    0.4032476      2204118          147  0.007193656   -81.385824   -57.985326 
  392700    10.285344   0.45130783      2204118          147  0.007193656   -81.193729   -56.850756 
  392800    10.148023   0.48449871      2204118          147  0.007193656   -80.901544   -56.883577 
  392900    9.9445437   0.51365853      2204118          147  0.007193656   -80.589759   -57.053379 
  393000    9.9231245   0.53645637      2204118          147  0.007193656   -80.355185     -56.8695 
  393100    10.146066   0.54432446      2204118          147  0.007193656      -80.314   -56.300664 
  393200    10.284642   0.53004688      2204118          147  0.007193656   -80.360063   -56.018751 
  393300    9.7874898   0.47621876      2204118          147  0.007193656   -80.459215   -57.294544 
  393400    9.5678393   0.43669424      2204118          147  0.007193656   -80.554779    -57.90997 
  393500    10.057937   0.43954103      2204118          147  0.007193656   -80.582714    -56.77796 
  393600    10.227725   0.43997424      2204118          147  0.007193656   -80.488994    -56.28239 
  393700    10.028776   0.42444652      2204118          147  0.007193656   -80.420124   -56.684387 
  393800    9.8790485   0.40813021      2204118          147  0.007193656   -80.373366   -56.991998 
  393900    9.9987263   0.39458499      2204118          147  0.007193656   -80.382881   -56.718263 
  394000    10.591793   0.38861015      2204118          147  0.007193656   -80.488017   -55.419752 
  394100    10.389927   0.33370832      2204118          147  0.007193656   -80.643149   -56.052653 
  394200    9.8468386   0.25850424      2204118          147  0.007193656   -80.818378   -57.513243 
  394300    9.9262447   0.21318474      2204118          147  0.007193656   -81.004585   -57.511514 
  394400    10.150881    0.1829298      2204118          147  0.007193656   -81.135839   -57.111107 
  394500    10.149884   0.15414336      2204118          147  0.007193656   -81.198938   -57.176566 
  394600    9.6259127     0.109695      2204118          147  0.007193656   -81.240666    -58.45841 
  394700    9.6116751   0.10051993      2204118          147  0.007193656   -81.187072   -58.438513 
  394800    10.253445   0.12385812      2204118          147  0.007193656   -81.149807    -56.88233 
  394900    10.229297   0.11493317      2204118          147  0.007193656    -81.11905   -56.908727 
  395000    9.9431596  0.090829572      2204118          147  0.007193656   -81.112068   -57.578964 
  395100     9.848821  0.073053651      2204118          147  0.007193656   -81.141026   -57.831199 
  395200    10.151243   0.07987583      2204118          147  0.007193656   -81.119977   -57.094388 
  395300    10.802424      0.11112      2204118          147  0.007193656   -81.089513   -55.522733 
  395400    10.139501  0.090161387      2204118          147  0.007193656   -81.023175   -57.025378 
  395500     9.783632  0.097009055      2204118          147  0.007193656   -80.856243   -57.700703 
  395600    9.9004605   0.13333528      2204118          147  0.007193656   -80.656579   -57.224533 
  395700    10.221016   0.18415256      2204118          147  0.007193656   -80.446012   -56.255287 
  395800    10.217135   0.22443593      2204118          147  0.007193656   -80.170299    -55.98876 
  395900    9.5048282   0.22230778      2204118          147  0.007193656   -79.946321   -57.450644 
  396000    9.4198827   0.23344287      2204118          147  0.007193656   -79.817183   -57.522551 
  396100    10.058029   0.25927035      2204118          147  0.007193656   -79.800177   -55.995205 
  396200    10.186642   0.24139994      2204118          147  0.007193656   -79.908727   -55.799359 
  396300    9.9664479   0.19846709      2204118          147  0.007193656   -80.042019   -56.453797 
  396400    9.6652981   0.14934991      2204118          147  0.007193656   -80.168869   -57.293398 
  396500    9.8208947   0.12165091      2204118          147  0.007193656   -80.274985   -57.031253 
  396600    10.560124   0.12025289      2204118          147  0.007193656   -80.408014     -55.4147 
  396700    10.263595  0.077474344      2204118          147  0.007193656   -80.491965   -56.200466 
  396800    9.8155328  0.037898292      2204118          147  0.007193656   -80.529176   -57.298134 
  396900    9.8894819  0.028112898      2204118          147  0.007193656   -80.563677   -57.157615 
  397000    10.146932  0.036123614      2204118          147  0.007193656   -80.534149   -56.518764 
  397100    10.279463  0.050805638      2204118          147  0.007193656   -80.453737   -56.124684 
  397200    9.8804858  0.054443334      2204118          147  0.007193656   -80.308264   -56.923494 
  397300    9.5271432  0.070396029      2204118          147  0.007193656   -80.067352   -57.518861 
  397400    10.003342   0.11848953      2204118          147  0.007193656   -79.900134   -56.224593 
  397500       10.295   0.14372154      2204118          147  0.007193656   -79.830161   -55.464334 
  397600    10.056002   0.12845874      2204118          147  0.007193656   -79.874032   -56.073858 
  397700    9.7979571   0.10564654      2204118          147  0.007193656   -79.981636   -56.792192 
  397800    9.9243136   0.10770682      2204118          147  0.007193656   -80.040077   -56.551578 
  397900    10.789972   0.15897187      2204118          147  0.007193656   -80.012518   -54.475208 
  398000    10.292002   0.15799711      2204118          147  0.007193656   -79.914296   -55.555565 
  398100    9.7694955    0.1635644      2204118          147  0.007193656   -79.764598   -56.642516 
  398200    9.8214349   0.19751788      2204118          147  0.007193656   -79.606638   -56.361628 
  398300    10.229007   0.24643122      2204118          147  0.007193656   -79.437339   -55.227702 
  398400    10.280235   0.26638723      2204118          147  0.007193656   -79.316547   -54.985667 
  398500    9.4897965    0.2217587      2204118          147  0.007193656   -79.343734   -56.883633 
  398600    9.5205969    0.1942272      2204118          147  0.007193656   -79.512183   -56.979185 
  398700    10.071576   0.18319796      2204118          147  0.007193656   -79.732361   -55.895326 
  398800    10.234902   0.16374312      2204118          147  0.007193656   -79.878469   -55.654879 
  398900    9.8861289   0.13581398      2204118          147  0.007193656   -79.935871   -56.537745 
  399000    9.4724534   0.12488045      2204118          147  0.007193656   -79.809611   -57.390557 
  399100    9.9897885   0.16833266      2204118          147  0.007193656    -79.62884   -55.985377 
  399200    10.358586   0.21131661      2204118          147  0.007193656   -79.403941   -54.887621 
  399300    9.9541033   0.21568984      2204118          147  0.007193656   -79.156248   -55.597243 
  399400    9.6554602   0.20316168      2204118          147  0.007193656   -79.068639   -56.216451 
  399500    10.103855    0.1986058      2204118          147  0.007193656    -79.15464   -55.241208 
  399600    10.652656   0.17367918      2204118          147  0.007193656    -79.40233   -54.190017 
  399700    10.252621  0.090722157      2204118          147  0.007193656   -79.739671   -55.474144 
  399800    10.082305  0.023799002      2204118          147  0.007193656    -80.03214   -56.169713 
  399900    9.9042446 -0.034195714      2204118          147  0.007193656   -80.330882    -56.88988 
  400000    9.8071831 -0.060703922      2204118          147  0.007193656   -80.427227   -57.215947 
  400100    10.054142   -0.0407981      2204118          147  0.007193656   -80.323039   -56.527266 
Loop time of 27.5248 on 1 procs for 400000 steps with 795 atoms

Performance: 313.899 ns/day, 0.076 hours/ns, 14532.374 timesteps/s
94.1% CPU use with 1 MPI tasks x no OpenMP threads

MPI task timing breakdown:
Section |  min time  |  avg time  |  max time  |%varavg| %total
---------------------------------------------------------------
Pair    | 16.626     | 16.626     | 16.626     |   0.0 | 60.40
Neigh   | 0.64629    | 0.64629    | 0.64629    |   0.0 |  2.35
Comm    | 0.68276    | 0.68276    | 0.68276    |   0.0 |  2.48
Output  | 2.4579     | 2.4579     | 2.4579     |   0.0 |  8.93
Modify  | 6.5146     | 6.5146     | 6.5146     |   0.0 | 23.67
Other   |            | 0.5974     |            |       |  2.17

Nlocal:            795 ave         795 max         795 min
Histogram: 1 0 0 0 0 0 0 0 0 0
Nghost:            147 ave         147 max         147 min
Histogram: 1 0 0 0 0 0 0 0 0 0
Neighs:           1933 ave        1933 max        1933 min
Histogram: 1 0 0 0 0 0 0 0 0 0

Total # of neighbors = 1933
Ave neighs/atom = 2.4314465
Neighbor list builds = 1845
Dangerous builds = 0

write_data graphene_single_layer_LJ_795C_after_temp_10K.data
System init for write_data ...
  generated 0 of 0 mixed pair_coeff terms from geometric mixing rule
Total wall time: 0:00:27
