# System definition
read_data graphene_single_layer_x-45_y-45_795_C.data  ### MODIFY FILE NAME ###
Reading data file ...
  orthogonal box = (-1.4464652 -1.4423034 -1.42) to (47.285152 47.149102 1.42)
  8 by 8 by 1 MPI processor grid
  reading atoms ...
  795 atoms
  reading velocities ...
  795 velocities
  read_data CPU = 0.045 seconds
pair_style lj/cut 6
pair_coeff      1 1 0.066047 3.4

# Virtual force wall to keep the cylinder shape
#region myCylinder cylinder z 0. 0. 20.3 -22.079997 505.920003 units box
#fix wall all wall/region myCylinder lj93 1.0 1.0 2.5

# Minimization
timestep 0.25
thermo 100
thermo_style custom step temp press vol lx density pe etotal
dump 2 all custom 1000 graphene_single_layer_LJ_795C_after_temp_500K.lammpstrj id type x y z ### MODIFY FILE NAME ###
min_style cg
minimize 1.0e-6 1.0e-6 100 1000
WARNING: Using 'neigh_modify every 1 delay 0 check yes' setting during minimization (src/min.cpp:187)
Generated 0 of 0 mixed pair_coeff terms from geometric mixing rule
Neighbor list info ...
  update every 1 steps, delay 0 steps, check yes
  max neighbors/atom: 10000, page size: 100000
  master list distance cutoff = 6.4
  ghost atom cutoff = 6.4
  binsize = 3.2, bins = 16 16 1
  1 neighbor lists, perpetual/occasional/extra = 1 0 0
  (1) pair lj/cut, perpetual
      attributes: half, newton on
      pair build: half/bin/atomonly/newton
      stencil: half/bin/3d
      bin: standard
Per MPI rank memory allocation (min/avg/max) = 5.47 | 5.472 | 5.472 Mbytes
   Step          Temp          Press          Volume           Lx          Density         PotEng         TotEng    
         0   923            3.5764745e+08  6724.9433      48.731617      2.3577398      8739313.6      8741498.1    
       100   923            47390520       6724.9433      48.731617      2.3577398      1146833.4      1149017.9    
Loop time of 0.0271157 on 64 procs for 100 steps with 795 atoms

96.6% CPU use with 64 MPI tasks x 1 OpenMP threads

Minimization stats:
  Stopping criterion = max iterations
  Energy initial, next-to-last, final = 
      8739313.57439336   1156380.83320826   1146833.40532139
  Force two-norm initial, final = 757147.49 28301.772
  Force max component initial, final = 127132.22 7330.8006
  Final line search alpha, max atom move = 9.6526089e-06 0.070761352
  Iterations, force evaluations = 100 123

MPI task timing breakdown:
Section |  min time  |  avg time  |  max time  |%varavg| %total
---------------------------------------------------------------
Pair    | 0.0017357  | 0.0026621  | 0.0045464  |   0.8 |  9.82
Neigh   | 0.0010252  | 0.0015088  | 0.0017391  |   0.3 |  5.56
Comm    | 0.008779   | 0.0098939  | 0.011031   |   0.5 | 36.49
Output  | 7.154e-05  | 7.8326e-05 | 9.328e-05  |   0.0 |  0.29
Modify  | 0          | 0          | 0          |   0.0 |  0.00
Other   |            | 0.01297    |            |       | 47.84

Nlocal:        12.4219 ave          15 max           9 min
Histogram: 1 3 0 11 0 17 19 0 11 2
Nghost:        579.656 ave         611 max         547 min
Histogram: 1 5 5 9 9 13 9 7 4 2
Neighs:        790.734 ave         969 max         597 min
Histogram: 3 2 10 1 15 7 13 5 7 1

Total # of neighbors = 50607
Ave neighs/atom = 63.656604
Neighbor list builds = 37
Dangerous builds = 0
#timestep 0.25
fix 1 all nvt temp 500.0 500.0 $(100.0*dt) ### MODIFY INITIAL TEMP, FINAL TEMP ###
fix 1 all nvt temp 500.0 500.0 25 
run 400000
Generated 0 of 0 mixed pair_coeff terms from geometric mixing rule
Per MPI rank memory allocation (min/avg/max) = 4.346 | 4.347 | 4.347 Mbytes
   Step          Temp          Press          Volume           Lx          Density         PotEng         TotEng    
       100   923            47390520       6724.9433      48.731617      2.3577398      1146833.4      1149017.9    
       200   12021.397      10009237       6724.9433      48.731617      2.3577398      231694.01      260145.82    
       300   3170.167       8078444.3      6724.9433      48.731617      2.3577398      188230.82      195733.86    
       400   1692.1051      7518451.6      6724.9433      48.731617      2.3577398      175210.42      179215.23    
       500   895.37593      7313258.8      6724.9433      48.731617      2.3577398      170538.4       172657.54    
       600   576.1848       7227049        6724.9433      48.731617      2.3577398      168570.15      169933.85    
       700   489.09117      7174377.4      6724.9433      48.731617      2.3577398      167324.93      168482.49    
       800   501.23948      7135884.7      6724.9433      48.731617      2.3577398      166385.98      167572.29    
       900   615.67364      7077916.3      6724.9433      48.731617      2.3577398      164935.69      166392.85    
      1000   508.11919      7038276.3      6724.9433      48.731617      2.3577398      164014.91      165217.5     
      1100   451.3406       7008256.2      6724.9433      48.731617      2.3577398      163309.14      164377.36    
      1200   445.62915      6987227.9      6724.9433      48.731617      2.3577398      162799.43      163854.12    
      1300   467.75835      6973974.5      6724.9433      48.731617      2.3577398      162470.48      163577.56    
      1400   499.17288      6960438.8      6724.9433      48.731617      2.3577398      162130.35      163311.78    
      1500   450.06446      6954753.9      6724.9433      48.731617      2.3577398      162011.67      163076.87    
      1600   461.74606      6952309.8      6724.9433      48.731617      2.3577398      161949.05      163041.89    
      1700   468.05889      6956099.6      6724.9433      48.731617      2.3577398      162037.78      163145.56    
      1800   514.47003      6958577.3      6724.9433      48.731617      2.3577398      162079.9       163297.53    
      1900   540.46759      6958890.6      6724.9433      48.731617      2.3577398      162077         163356.16    
      2000   522.80481      6955350.8      6724.9433      48.731617      2.3577398      161997.25      163234.6     
      2100   540.14856      6943723.7      6724.9433      48.731617      2.3577398      161708.08      162986.49    
      2200   481.46661      6935281.3      6724.9433      48.731617      2.3577398      161525.74      162665.26    
      2300   424.51786      6934809.9      6724.9433      48.731617      2.3577398      161536.45      162541.18    
      2400   455.91799      6938564.4      6724.9433      48.731617      2.3577398      161616.49      162695.54    
      2500   539.24203      6946091.1      6724.9433      48.731617      2.3577398      161766.02      163042.28    
      2600   587.25905      6951227.7      6724.9433      48.731617      2.3577398      161872.73      163262.64    
      2700   567.71042      6941195.8      6724.9433      48.731617      2.3577398      161639.28      162982.92    
      2800   496.8804       6922952.8      6724.9433      48.731617      2.3577398      161223.57      162399.57    
      2900   442.59726      6906290.5      6724.9433      48.731617      2.3577398      160839.74      161887.27    
      3000   432.83203      6895858.2      6724.9433      48.731617      2.3577398      160589.95      161614.36    
      3100   477.07549      6892393.1      6724.9433      48.731617      2.3577398      160489.35      161618.48    
      3200   526.85939      6893533.8      6724.9433      48.731617      2.3577398      160500.1       161747.05    
      3300   691.83229      6876347.2      6724.9433      48.731617      2.3577398      160017.25      161654.66    
      3400   520.78722      6858110.7      6724.9433      48.731617      2.3577398      159642.55      160875.13    
      3500   433.3616       6841467.6      6724.9433      48.731617      2.3577398      159273.02      160298.69    
      3600   391.05084      6835264.5      6724.9433      48.731617      2.3577398      159138.1       160063.62    
      3700   418.52798      6839737.2      6724.9433      48.731617      2.3577398      159236.55      160227.11    
      3800   527.38039      6850846.3      6724.9433      48.731617      2.3577398      159464.05      160712.23    
      3900   594.40397      6862791.3      6724.9433      48.731617      2.3577398      159727.73      161134.54    
      4000   584.35474      6858859.3      6724.9433      48.731617      2.3577398      159635.42      161018.45    
      4100   490.39511      6847941.4      6724.9433      48.731617      2.3577398      159408.36      160569.01    
      4200   416.86567      6840810.9      6724.9433      48.731617      2.3577398      159262.26      160248.88    
      4300   430.50519      6839438.9      6724.9433      48.731617      2.3577398      159224.62      160243.52    
      4400   511.1641       6843823.9      6724.9433      48.731617      2.3577398      159298.29      160508.09    
      4500   538.42785      6853912.9      6724.9433      48.731617      2.3577398      159534.5       160808.83    
      4600   558.3095       6856210.3      6724.9433      48.731617      2.3577398      159580.35      160901.74    
      4700   503.1653       6854973.4      6724.9433      48.731617      2.3577398      159572.88      160763.75    
      4800   483.19051      6848207.4      6724.9433      48.731617      2.3577398      159417.18      160560.78    
      4900   473.29413      6843930.5      6724.9433      48.731617      2.3577398      159315.7       160435.87    
      5000   480.15238      6843082.1      6724.9433      48.731617      2.3577398      159292.98      160429.38    
      5100   475.29993      6846342        6724.9433      48.731617      2.3577398      159376.08      160501       
      5200   487.82946      6851170.8      6724.9433      48.731617      2.3577398      159486.52      160641.1     
      5300   538.88498      6852668.4      6724.9433      48.731617      2.3577398      159504.36      160779.77    
      5400   533.00672      6852581.2      6724.9433      48.731617      2.3577398      159503.15      160764.65    
      5500   509.43437      6847383.1      6724.9433      48.731617      2.3577398      159386.77      160592.48    
      5600   454.30618      6844933.4      6724.9433      48.731617      2.3577398      159348.95      160424.19    
      5700   453.36887      6845003.8      6724.9433      48.731617      2.3577398      159350.54      160423.56    
      5800   500.30958      6847161.4      6724.9433      48.731617      2.3577398      159384.1       160568.21    
      5900   511.41446      6852233.5      6724.9433      48.731617      2.3577398      159503.02      160713.42    
      6000   534.27594      6852419.2      6724.9433      48.731617      2.3577398      159497.8       160762.3     
      6100   510.24104      6851938.5      6724.9433      48.731617      2.3577398      159497.13      160704.75    
      6200   511.88535      6846491.5      6724.9433      48.731617      2.3577398      159363.32      160574.83    
      6300   468.00122      6844969.1      6724.9433      48.731617      2.3577398      159343.71      160451.36    
      6400   462.03137      6844990.9      6724.9433      48.731617      2.3577398      159347.52      160441.04    
      6500   493.60453      6847427        6724.9433      48.731617      2.3577398      159392.47      160560.71    
      6600   532.93018      6850598.5      6724.9433      48.731617      2.3577398      159456.17      160717.49    
      6700   546.87835      6852624.7      6724.9433      48.731617      2.3577398      159499.73      160794.06    
      6800   529.90892      6849470.9      6724.9433      48.731617      2.3577398      159429.11      160683.28    
      6900   478.39959      6845433.3      6724.9433      48.731617      2.3577398      159351.38      160483.64    
      7000   471.88213      6842406.2      6724.9433      48.731617      2.3577398      159281.25      160398.08    
      7100   483.65591      6843476.8      6724.9433      48.731617      2.3577398      159302.37      160447.07    
      7200   478.48812      6849932.7      6724.9433      48.731617      2.3577398      159458.99      160591.46    
      7300   551.12092      6851403.5      6724.9433      48.731617      2.3577398      159468.32      160772.69    
      7400   552.03313      6851073.8      6724.9433      48.731617      2.3577398      159459.58      160766.12    
      7500   488.96794      6848631.7      6724.9433      48.731617      2.3577398      159424.83      160582.1     
      7600   486.43126      6842083.2      6724.9433      48.731617      2.3577398      159266.67      160417.93    
      7700   449.97076      6843392.9      6724.9433      48.731617      2.3577398      159313.66      160378.63    
      7800   499.32272      6845909.6      6724.9433      48.731617      2.3577398      159355.28      160537.06    
      7900   543.32841      6850252        6724.9433      48.731617      2.3577398      159443.02      160728.95    
      8000   522.20312      6852912.6      6724.9433      48.731617      2.3577398      159516.84      160752.77    
      8100   523.65972      6847532.7      6724.9433      48.731617      2.3577398      159385.75      160625.13    
      8200   474.15822      6844408.2      6724.9433      48.731617      2.3577398      159328.22      160450.44    
      8300   464.23872      6843103.4      6724.9433      48.731617      2.3577398      159299.6       160398.35    
      8400   494.29822      6845256        6724.9433      48.731617      2.3577398      159340.47      160510.35    
      8500   516.2855       6849561.3      6724.9433      48.731617      2.3577398      159437.36      160659.28    
      8600   516.77024      6852543        6724.9433      48.731617      2.3577398      159508.84      160731.91    
      8700   518.93362      6849123.3      6724.9433      48.731617      2.3577398      159424.87      160653.07    
      8800   487.6619       6845776.6      6724.9433      48.731617      2.3577398      159355.37      160509.55    
      8900   455.57252      6845983.3      6724.9433      48.731617      2.3577398      159373.06      160451.29    
      9000   500.09464      6844167.1      6724.9433      48.731617      2.3577398      159312.29      160495.89    
      9100   502.33321      6848460.1      6724.9433      48.731617      2.3577398      159415.91      160604.82    
      9200   521.72564      6850365.4      6724.9433      48.731617      2.3577398      159454.41      160689.21    
      9300   501.66412      6850331.9      6724.9433      48.731617      2.3577398      159462.02      160649.34    
      9400   478.28422      6847904        6724.9433      48.731617      2.3577398      159411.24      160543.22    
      9500   499.0654       6843976.8      6724.9433      48.731617      2.3577398      159308.04      160489.21    
      9600   504.03348      6844305.1      6724.9433      48.731617      2.3577398      159313.8       160506.73    
      9700   516.52242      6846311        6724.9433      48.731617      2.3577398      159357.36      160579.84    
      9800   517.47358      6848465.9      6724.9433      48.731617      2.3577398      159410         160634.73    
      9900   499.89833      6849446.5      6724.9433      48.731617      2.3577398      159441.14      160624.28    
     10000   505.71699      6848504.9      6724.9433      48.731617      2.3577398      159415.57      160612.48    
     10100   501.93995      6846620.8      6724.9433      48.731617      2.3577398      159371.43      160559.4     
     10200   492.03986      6845863.9      6724.9433      48.731617      2.3577398      159356.74      160521.28    
     10300   483.49701      6846181.3      6724.9433      48.731617      2.3577398      159367.39      160511.72    
     10400   486.8754       6847343.6      6724.9433      48.731617      2.3577398      159394.28      160546.6     
     10500   517.64404      6848102.6      6724.9433      48.731617      2.3577398      159401.09      160626.23    
     10600   531.57336      6848794.6      6724.9433      48.731617      2.3577398      159411.52      160669.63    
     10700   506.54445      6848953.8      6724.9433      48.731617      2.3577398      159426.38      160625.25    
     10800   489.25952      6846975.5      6724.9433      48.731617      2.3577398      159384.62      160542.58    
     10900   464.97337      6845893.9      6724.9433      48.731617      2.3577398      159367.9       160468.38    
     11000   468.21078      6845660.2      6724.9433      48.731617      2.3577398      159360.36      160468.51    
     11100   501.68062      6847701.8      6724.9433      48.731617      2.3577398      159397.6       160584.96    
     11200   513.07653      6851544        6724.9433      48.731617      2.3577398      159486.89      160701.22    
     11300   539.17909      6849736.8      6724.9433      48.731617      2.3577398      159432.12      160708.23    
     11400   502.35092      6847475.9      6724.9433      48.731617      2.3577398      159391.97      160580.91    
     11500   471.91927      6843717.8      6724.9433      48.731617      2.3577398      159311.03      160427.95    
     11600   457.14791      6844388.7      6724.9433      48.731617      2.3577398      159333.9       160415.86    
     11700   470.04825      6848760        6724.9433      48.731617      2.3577398      159436.25      160548.75    
     11800   540.93515      6850072        6724.9433      48.731617      2.3577398      159439.92      160720.19    
     11900   535.58651      6852282.6      6724.9433      48.731617      2.3577398      159495.97      160763.58    
     12000   513.11898      6848060.7      6724.9433      48.731617      2.3577398      159402.04      160616.48    
     12100   472.28837      6843872.5      6724.9433      48.731617      2.3577398      159316.11      160433.91    
     12200   446.36005      6843628.7      6724.9433      48.731617      2.3577398      159319.31      160375.74    
     12300   475.81648      6846026.9      6724.9433      48.731617      2.3577398      159366.2       160492.34    
     12400   517.43244      6851463.7      6724.9433      48.731617      2.3577398      159483.02      160707.66    
     12500   550.8682       6852427        6724.9433      48.731617      2.3577398      159493.16      160796.93    
     12600   500.53592      6850736.4      6724.9433      48.731617      2.3577398      159471.28      160655.93    
     12700   468.15821      6844732.7      6724.9433      48.731617      2.3577398      159338.1       160446.11    
     12800   462.41375      6841860.7      6724.9433      48.731617      2.3577398      159271.03      160365.45    
     12900   466.52502      6845837.3      6724.9433      48.731617      2.3577398      159365.99      160470.14    
     13000   517.83505      6850316.3      6724.9433      48.731617      2.3577398      159454.11      160679.7     
     13100   551.94198      6851752.8      6724.9433      48.731617      2.3577398      159476.21      160782.53    
     13200   527.93706      6849733        6724.9433      48.731617      2.3577398      159437.26      160686.76    
     13300   482.8213       6845892.4      6724.9433      48.731617      2.3577398      159361.29      160504.01    
     13400   445.46278      6844154.5      6724.9433      48.731617      2.3577398      159333.57      160387.87    
     13500   466.12273      6845022.1      6724.9433      48.731617      2.3577398      159346.7       160449.9     
     13600   530.31102      6846818.4      6724.9433      48.731617      2.3577398      159364.77      160619.89    
     13700   550.85494      6849941.8      6724.9433      48.731617      2.3577398      159432.89      160736.64    
     13800   519.06184      6850537.3      6724.9433      48.731617      2.3577398      159458.44      160686.93    
     13900   474.80954      6847967.4      6724.9433      48.731617      2.3577398      159414.23      160538       
     14000   503.63435      6842170.5      6724.9433      48.731617      2.3577398      159263         160454.98    
     14100   486.60351      6844634.7      6724.9433      48.731617      2.3577398      159328.17      160479.85    
     14200   496.12832      6847895.3      6724.9433      48.731617      2.3577398      159405.39      160579.61    
     14300   499.73549      6850650.3      6724.9433      48.731617      2.3577398      159470.37      160653.12    
     14400   524.65077      6848255.6      6724.9433      48.731617      2.3577398      159402.74      160644.47    
     14500   494.96209      6848421.8      6724.9433      48.731617      2.3577398      159416.76      160588.22    
     14600   505.78487      6845781.2      6724.9433      48.731617      2.3577398      159349.57      160546.65    
     14700   476.22287      6847444.5      6724.9433      48.731617      2.3577398      159401.52      160528.63    
     14800   485.19483      6847665.6      6724.9433      48.731617      2.3577398      159402.18      160550.53    
     14900   490.86831      6848230.3      6724.9433      48.731617      2.3577398      159413.82      160575.59    
     15000   499.70545      6847849.2      6724.9433      48.731617      2.3577398      159402.89      160585.57    
     15100   510.88818      6847901.2      6724.9433      48.731617      2.3577398      159398.74      160607.89    
     15200   496.05858      6849146.6      6724.9433      48.731617      2.3577398      159434         160608.06    
     15300   501.63844      6847490        6724.9433      48.731617      2.3577398      159391.08      160578.34    
     15400   497.94434      6845932.7      6724.9433      48.731617      2.3577398      159356.47      160534.99    
     15500   477.37143      6846565.5      6724.9433      48.731617      2.3577398      159379.29      160509.12    
     15600   490.18878      6847028.6      6724.9433      48.731617      2.3577398      159384.77      160544.93    
     15700   514.0789       6848163.9      6724.9433      48.731617      2.3577398      159404.05      160620.75    
     15800   527.93007      6848648.3      6724.9433      48.731617      2.3577398      159409.02      160658.51    
     15900   529.4764       6846993.6      6724.9433      48.731617      2.3577398      159368.99      160622.14    
     16000   478.4148       6847150.5      6724.9433      48.731617      2.3577398      159393.56      160525.86    
     16100   470.98937      6845745.4      6724.9433      48.731617      2.3577398      159362.7       160477.42    
     16200   491.44185      6845810.3      6724.9433      48.731617      2.3577398      159356.25      160519.38    
     16300   500.97695      6848702.9      6724.9433      48.731617      2.3577398      159422.34      160608.03    
     16400   539.52264      6848753.1      6724.9433      48.731617      2.3577398      159407.31      160684.24    
     16500   525.04896      6848613.2      6724.9433      48.731617      2.3577398      159410.91      160653.58    
     16600   498.76186      6845602.1      6724.9433      48.731617      2.3577398      159348.5       160528.95    
     16700   466.92699      6845212.6      6724.9433      48.731617      2.3577398      159349.85      160454.95    
     16800   472.4295       6845972.4      6724.9433      48.731617      2.3577398      159366.83      160484.96    
     16900   502.8703       6848592.8      6724.9433      48.731617      2.3577398      159418.64      160608.81    
     17000   539.83957      6849799.8      6724.9433      48.731617      2.3577398      159432.96      160710.64    
     17100   528.46161      6848889.1      6724.9433      48.731617      2.3577398      159415.35      160666.1     
     17200   483.54448      6846775.9      6724.9433      48.731617      2.3577398      159381.44      160525.88    
     17300   480.17189      6843681.6      6724.9433      48.731617      2.3577398      159307.95      160444.41    
     17400   456.11548      6846881.4      6724.9433      48.731617      2.3577398      159395.48      160474.99    
     17500   517.69195      6847410.7      6724.9433      48.731617      2.3577398      159384.88      160610.14    
     17600   540.06516      6849838.8      6724.9433      48.731617      2.3577398      159434.92      160713.12    
     17700   498.32123      6851262.2      6724.9433      48.731617      2.3577398      159485.12      160664.53    
     17800   495.39538      6846340.1      6724.9433      48.731617      2.3577398      159367.21      160539.69    
     17900   472.82398      6844393.2      6724.9433      48.731617      2.3577398      159328.45      160447.51    
     18000   480.05054      6844875.1      6724.9433      48.731617      2.3577398      159336.94      160473.11    
     18100   521.55579      6846714.7      6724.9433      48.731617      2.3577398      159366.4       160600.8     
     18200   514.64517      6850981.3      6724.9433      48.731617      2.3577398      159472.41      160690.45    
     18300   537.95961      6848122.3      6724.9433      48.731617      2.3577398      159394.66      160667.88    
     18400   489.16424      6847809.7      6724.9433      48.731617      2.3577398      159405.08      160562.82    
     18500   473.67978      6845202.8      6724.9433      48.731617      2.3577398      159347.93      160469.02    
     18600   492.38095      6844325.6      6724.9433      48.731617      2.3577398      159319.39      160484.74    
     18700   515.92902      6846265.2      6724.9433      48.731617      2.3577398      159357.73      160578.81    
     18800   522.16219      6849068.4      6724.9433      48.731617      2.3577398      159422.66      160658.5     
     18900   505.07047      6850419.8      6724.9433      48.731617      2.3577398      159461.26      160656.64    
     19000   494.1012       6848357.9      6724.9433      48.731617      2.3577398      159416.56      160585.98    
     19100   467.64616      6847213.4      6724.9433      48.731617      2.3577398      159397.92      160504.72    
     19200   487.46507      6845246.6      6724.9433      48.731617      2.3577398      159343.81      160497.53    
     19300   502.32252      6846540        6724.9433      48.731617      2.3577398      159368.34      160557.22    
     19400   501.52795      6849179.1      6724.9433      48.731617      2.3577398      159433.36      160620.36    
     19500   520.13522      6848257.5      6724.9433      48.731617      2.3577398      159403.23      160634.27    
     19600   514.24466      6846943.2      6724.9433      48.731617      2.3577398      159374.27      160591.36    
     19700   504.00027      6846028.1      6724.9433      48.731617      2.3577398      159356.23      160549.07    
     19800   491.25765      6846644.5      6724.9433      48.731617      2.3577398      159376.21      160538.9     
     19900   484.43426      6848095.6      6724.9433      48.731617      2.3577398      159412.76      160559.3     
     20000   523.55179      6846016.8      6724.9433      48.731617      2.3577398      159348.82      160587.95    
     20100   498.33407      6848132.5      6724.9433      48.731617      2.3577398      159408.89      160588.33    
     20200   497.29069      6848108.7      6724.9433      48.731617      2.3577398      159409.03      160586       
     20300   476.86473      6849616.9      6724.9433      48.731617      2.3577398      159453.34      160581.97    
     20400   506.9564       6847100.4      6724.9433      48.731617      2.3577398      159381.52      160581.36    
     20500   489.18943      6847562.3      6724.9433      48.731617      2.3577398      159399.39      160557.19    
     20600   485.52558      6847421.4      6724.9433      48.731617      2.3577398      159395.91      160545.04    
     20700   473.60451      6848616.6      6724.9433      48.731617      2.3577398      159431.01      160551.92    
     20800   494.56603      6848068.6      6724.9433      48.731617      2.3577398      159409.25      160579.77    
     20900   508.65215      6848383.1      6724.9433      48.731617      2.3577398      159410.44      160614.3     
     21000   490.10857      6849722.8      6724.9433      48.731617      2.3577398      159451.73      160611.7     
     21100   502.11288      6846945.1      6724.9433      48.731617      2.3577398      159379.26      160567.64    
     21200   489.76307      6846314.2      6724.9433      48.731617      2.3577398      159368.8       160527.95    
     21300   495.5229       6845848.8      6724.9433      48.731617      2.3577398      159355.22      160528       
     21400   494.66799      6847840.7      6724.9433      48.731617      2.3577398      159403.98      160574.74    
     21500   504.4889       6848714.3      6724.9433      48.731617      2.3577398      159420.85      160614.85    
     21600   509.01721      6848811.8      6724.9433      48.731617      2.3577398      159421.78      160626.5     
     21700   507.23959      6847145.9      6724.9433      48.731617      2.3577398      159381.69      160582.21    
     21800   489.67128      6846565.3      6724.9433      48.731617      2.3577398      159374.33      160533.27    
     21900   481.46798      6846768.6      6724.9433      48.731617      2.3577398      159383.23      160522.76    
     22000   501.98487      6846176.2      6724.9433      48.731617      2.3577398      159360.48      160548.56    
     22100   502.17577      6848421.7      6724.9433      48.731617      2.3577398      159415.18      160603.71    
     22200   505.37927      6849335.1      6724.9433      48.731617      2.3577398      159435.15      160631.26    
     22300   522.78037      6846796.3      6724.9433      48.731617      2.3577398      159367.3       160604.6     
     22400   498.36452      6846333.9      6724.9433      48.731617      2.3577398      159365.32      160544.83    
     22500   475.82986      6846984.9      6724.9433      48.731617      2.3577398      159390.54      160516.72    
     22600   494.85447      6846553.8      6724.9433      48.731617      2.3577398      159371.74      160542.95    
     22700   508.81956      6847214.4      6724.9433      48.731617      2.3577398      159382.98      160587.24    
     22800   517.92125      6847922.8      6724.9433      48.731617      2.3577398      159396.38      160622.17    
     22900   511.83971      6847837        6724.9433      48.731617      2.3577398      159395.88      160607.28    
     23000   491.22128      6847801.3      6724.9433      48.731617      2.3577398      159405.43      160568.04    
     23100   469.00003      6848321.8      6724.9433      48.731617      2.3577398      159426.6       160536.62    
     23200   498.76857      6846343        6724.9433      48.731617      2.3577398      159365.12      160545.58    
     23300   513.48673      6846203.8      6724.9433      48.731617      2.3577398      159356.64      160571.94    
     23400   510.67638      6847625.3      6724.9433      48.731617      2.3577398      159391.62      160600.27    
     23500   513.57691      6847418.8      6724.9433      48.731617      2.3577398      159386.44      160601.95    
     23600   504.32227      6847208.2      6724.9433      48.731617      2.3577398      159384.64      160578.25    
     23700   494.68121      6847009        6724.9433      48.731617      2.3577398      159383.2       160553.99    
     23800   502.36334      6846324        6724.9433      48.731617      2.3577398      159363.79      160552.76    
     23900   498.98752      6847285.3      6724.9433      48.731617      2.3577398      159388.57      160569.55    
     24000   504.42681      6847487.9      6724.9433      48.731617      2.3577398      159390.78      160584.64    
     24100   496.36949      6848330.3      6724.9433      48.731617      2.3577398      159414.36      160589.15    
     24200   494.8119       6848160.8      6724.9433      48.731617      2.3577398      159411.22      160582.32    
     24300   514.11906      6846168.3      6724.9433      48.731617      2.3577398      159356.11      160572.91    
     24400   504.4676       6846618.9      6724.9433      48.731617      2.3577398      159370.24      160564.2     
     24500   511.24882      6845987.6      6724.9433      48.731617      2.3577398      159352.61      160562.61    
     24600   504.26372      6846973.5      6724.9433      48.731617      2.3577398      159378.31      160571.78    
     24700   494.23736      6847986.5      6724.9433      48.731617      2.3577398      159407.02      160576.77    
     24800   512.22297      6846686.5      6724.9433      48.731617      2.3577398      159367.46      160579.77    
     24900   499.22598      6847661        6724.9433      48.731617      2.3577398      159397.55      160579.1     
     25000   497.73349      6847674.1      6724.9433      48.731617      2.3577398      159398.29      160576.31    
     25100   497.26719      6848006.9      6724.9433      48.731617      2.3577398      159405.05      160581.97    
     25200   502.84206      6846811.4      6724.9433      48.731617      2.3577398      159375.69      160565.8     
     25300   486.54635      6847705.4      6724.9433      48.731617      2.3577398      159403.36      160554.9     
     25400   488.95941      6847717.2      6724.9433      48.731617      2.3577398      159402.54      160559.79    
     25500   519.35356      6846048.2      6724.9433      48.731617      2.3577398      159349.7       160578.88    
     25600   526.63777      6846566.5      6724.9433      48.731617      2.3577398      159359.71      160606.14    
     25700   521.38803      6846571.9      6724.9433      48.731617      2.3577398      159364.17      160598.17    
     25800   482.75734      6848580.8      6724.9433      48.731617      2.3577398      159426.67      160569.25    
     25900   504.14115      6845896.3      6724.9433      48.731617      2.3577398      159352.41      160545.59    
     26000   481.25073      6847251        6724.9433      48.731617      2.3577398      159394.75      160533.76    
     26100   470.94297      6849491        6724.9433      48.731617      2.3577398      159453.14      160567.75    
     26200   494.9062       6849161.4      6724.9433      48.731617      2.3577398      159436.12      160607.44    
     26300   509.75467      6848544.5      6724.9433      48.731617      2.3577398      159415.2       160621.66    
     26400   502.8585       6848012.3      6724.9433      48.731617      2.3577398      159404.59      160594.74    
     26500   510.73973      6844956.4      6724.9433      48.731617      2.3577398      159326.89      160535.69    
     26600   473.82901      6846673        6724.9433      48.731617      2.3577398      159382.45      160503.89    
     26700   500.30524      6846153.1      6724.9433      48.731617      2.3577398      159360.31      160544.41    
     26800   512.93077      6848171.5      6724.9433      48.731617      2.3577398      159403.74      160617.73    
     26900   494.30272      6851172.8      6724.9433      48.731617      2.3577398      159486.03      160655.93    
     27000   519.78805      6847552        6724.9433      48.731617      2.3577398      159386         160616.22    
     27100   500.11275      6845522.8      6724.9433      48.731617      2.3577398      159346.03      160529.68    
     27200   485.95281      6845027.8      6724.9433      48.731617      2.3577398      159338.24      160488.37    
     27300   495.58897      6845460.1      6724.9433      48.731617      2.3577398      159345.74      160518.68    
     27400   517.27219      6847277.8      6724.9433      48.731617      2.3577398      159380.77      160605.04    
     27500   511.28577      6850732.3      6724.9433      48.731617      2.3577398      159467.09      160677.18    
     27600   501.99664      6850096.9      6724.9433      48.731617      2.3577398      159455.23      160643.33    
     27700   492.44073      6846806.2      6724.9433      48.731617      2.3577398      159379.73      160545.22    
     27800   486.36661      6844269.5      6724.9433      48.731617      2.3577398      159320.06      160471.17    
     27900   483.70803      6845252.4      6724.9433      48.731617      2.3577398      159345.45      160490.28    
     28000   488.64465      6848926.2      6724.9433      48.731617      2.3577398      159432.18      160588.69    
     28100   523.72978      6849589        6724.9433      48.731617      2.3577398      159435.36      160674.9     
     28200   527.8514       6848987.5      6724.9433      48.731617      2.3577398      159418.11      160667.41    
     28300   505.12774      6846781.8      6724.9433      48.731617      2.3577398      159374.33      160569.85    
     28400   488.53058      6844686.6      6724.9433      48.731617      2.3577398      159328.76      160484.99    
     28500   480.7436       6844768.9      6724.9433      48.731617      2.3577398      159335.36      160473.16    
     28600   487.80934      6847696.5      6724.9433      48.731617      2.3577398      159402.02      160556.55    
     28700   532.40217      6848416.5      6724.9433      48.731617      2.3577398      159401.93      160662       
     28800   508.14642      6850875.9      6724.9433      48.731617      2.3577398      159472.82      160675.48    
     28900   519.0151       6846682.7      6724.9433      48.731617      2.3577398      159365.97      160594.36    
     29000   479.32672      6845871.5      6724.9433      48.731617      2.3577398      159361.96      160496.41    
     29100   481.17211      6844770.9      6724.9433      48.731617      2.3577398      159334.15      160472.97    
     29200   498.22848      6846217        6724.9433      48.731617      2.3577398      159362.54      160541.73    
     29300   511.78038      6849196.6      6724.9433      48.731617      2.3577398      159428.53      160639.79    
     29400   517.6459       6850000        6724.9433      48.731617      2.3577398      159447.33      160672.47    
     29500   495.70352      6849219.5      6724.9433      48.731617      2.3577398      159436.55      160609.76    
     29600   498.95515      6845569.9      6724.9433      48.731617      2.3577398      159346.38      160527.28    
     29700   480.20889      6845291.7      6724.9433      48.731617      2.3577398      159347.7       160484.24    
     29800   491.92387      6846050.5      6724.9433      48.731617      2.3577398      159360.97      160525.24    
     29900   524.11531      6846936.7      6724.9433      48.731617      2.3577398      159370.19      160610.65    
     30000   508.73213      6850332.5      6724.9433      48.731617      2.3577398      159458.65      160662.69    
     30100   502.15985      6849657.7      6724.9433      48.731617      2.3577398      159445.14      160633.63    
     30200   475.13345      6848522.6      6724.9433      48.731617      2.3577398      159428.6       160553.13    
     30300   463.0341       6847048.4      6724.9433      48.731617      2.3577398      159396.57      160492.46    
     30400   479.47179      6846249.1      6724.9433      48.731617      2.3577398      159370.75      160505.54    
     30500   489.57053      6848373.7      6724.9433      48.731617      2.3577398      159418.82      160577.52    
     30600   517.74295      6848695.8      6724.9433      48.731617      2.3577398      159415.91      160641.29    
     30700   515.2055       6849068.9      6724.9433      48.731617      2.3577398      159424.87      160644.24    
     30800   519.18947      6846459.4      6724.9433      48.731617      2.3577398      159361.44      160590.24    
     30900   490.86482      6845963.7      6724.9433      48.731617      2.3577398      159360.16      160521.92    
     31000   490.925        6845179.4      6724.9433      48.731617      2.3577398      159340.59      160502.5     
     31100   471.72816      6848087.2      6724.9433      48.731617      2.3577398      159418.39      160534.86    
     31200   512.31704      6847698.9      6724.9433      48.731617      2.3577398      159393.82      160606.36    
     31300   520.52958      6848882.7      6724.9433      48.731617      2.3577398      159418.98      160650.95    
     31400   493.81229      6850118.8      6724.9433      48.731617      2.3577398      159459.26      160628       
     31500   510.82143      6846091.9      6724.9433      48.731617      2.3577398      159353.64      160562.63    
     31600   474.94895      6846528.6      6724.9433      48.731617      2.3577398      159379         160503.09    
     31700   483.30959      6845859.9      6724.9433      48.731617      2.3577398      159360.03      160503.91    
     31800   493.09461      6847597.9      6724.9433      48.731617      2.3577398      159397.53      160564.57    
     31900   521.26699      6848321.8      6724.9433      48.731617      2.3577398      159404.99      160638.71    
     32000   521.25253      6849065.3      6724.9433      48.731617      2.3577398      159421.35      160655.03    
     32100   504.70427      6848187        6724.9433      48.731617      2.3577398      159408.69      160603.21    
     32200   487.97183      6846202.8      6724.9433      48.731617      2.3577398      159365.51      160520.42    
     32300   484.36613      6844752.2      6724.9433      48.731617      2.3577398      159332.32      160478.7     
     32400   470.52672      6847554        6724.9433      48.731617      2.3577398      159405.8       160519.43    
     32500   500.42526      6849130.9      6724.9433      48.731617      2.3577398      159432.2       160616.59    
     32600   514.35838      6850734        6724.9433      48.731617      2.3577398      159466.24      160683.6     
     32700   500.68717      6850318.2      6724.9433      48.731617      2.3577398      159461.65      160646.66    
     32800   468.3715       6848653.3      6724.9433      48.731617      2.3577398      159434.14      160542.66    
     32900   474.11092      6844857.6      6724.9433      48.731617      2.3577398      159338.96      160461.07    
     33000   470.20666      6846029.2      6724.9433      48.731617      2.3577398      159369.39      160482.26    
     33100   493.86055      6848505.3      6724.9433      48.731617      2.3577398      159419.75      160588.6     
     33200   529.71307      6849696.3      6724.9433      48.731617      2.3577398      159435.73      160689.43    
     33300   506.22675      6851496.8      6724.9433      48.731617      2.3577398      159486.53      160684.65    
     33400   512.99397      6846385.3      6724.9433      48.731617      2.3577398      159360.29      160574.43    
     33500   493.82096      6843297.8      6724.9433      48.731617      2.3577398      159293.69      160462.45    
     33600   457.84369      6845549.9      6724.9433      48.731617      2.3577398      159361.32      160444.93    
     33700   491.09309      6847212.7      6724.9433      48.731617      2.3577398      159390.5       160552.8     
     33800   517.20159      6850452.9      6724.9433      48.731617      2.3577398      159458.33      160682.42    
     33900   518.09783      6851751.8      6724.9433      48.731617      2.3577398      159489.44      160715.66    
     34000   515.35886      6847562        6724.9433      48.731617      2.3577398      159390.05      160609.79    
     34100   467.77645      6845815.6      6724.9433      48.731617      2.3577398      159364.58      160471.69    
     34200   474.28408      6843660.7      6724.9433      48.731617      2.3577398      159310.89      160433.41    
     34300   485.56413      6846217.7      6724.9433      48.731617      2.3577398      159366.89      160516.11    
     34400   512.82897      6849774.1      6724.9433      48.731617      2.3577398      159442.99      160656.73    
     34500   523.00774      6851620        6724.9433      48.731617      2.3577398      159485.2       160723.04    
     34600   499.78695      6850191.8      6724.9433      48.731617      2.3577398      159459.59      160642.47    
     34700   476.19071      6846485.4      6724.9433      48.731617      2.3577398      159377.35      160504.38    
     34800   469.43431      6843956.3      6724.9433      48.731617      2.3577398      159319.47      160430.51    
     34900   481.71097      6845294        6724.9433      48.731617      2.3577398      159347.93      160488.03    
     35000   512.63957      6848489.4      6724.9433      48.731617      2.3577398      159412.96      160626.25    
     35100   530.91521      6851020.7      6724.9433      48.731617      2.3577398      159466.81      160723.36    
     35200   506.05339      6851000.7      6724.9433      48.731617      2.3577398      159476.45      160674.16    
     35300   481.97657      6846957.5      6724.9433      48.731617      2.3577398      159387.8       160528.52    
     35400   469.97999      6844124.2      6724.9433      48.731617      2.3577398      159321.75      160434.08    
     35500   481.43011      6844489.9      6724.9433      48.731617      2.3577398      159327.38      160466.81    
     35600   503.37104      6847960.5      6724.9433      48.731617      2.3577398      159402.58      160593.94    
     35700   538.7709       6849697.5      6724.9433      48.731617      2.3577398      159430.83      160705.98    
     35800   519.47599      6850531.7      6724.9433      48.731617      2.3577398      159457.55      160687.03    
     35900   484.77336      6848330.4      6724.9433      48.731617      2.3577398      159419.64      160566.99    
     36000   479.09684      6844390.3      6724.9433      48.731617      2.3577398      159326.05      160459.95    
     36100   474.45955      6844756.1      6724.9433      48.731617      2.3577398      159336.64      160459.58    
     36200   494.95279      6847229.6      6724.9433      48.731617      2.3577398      159388.62      160560.05    
     36300   527.54066      6849257.3      6724.9433      48.731617      2.3577398      159424.86      160673.42    
     36400   521.08273      6850537.8      6724.9433      48.731617      2.3577398      159458.17      160691.45    
     36500   511.95728      6847533.4      6724.9433      48.731617      2.3577398      159388.18      160599.86    
     36600   476.88393      6845966.9      6724.9433      48.731617      2.3577398      159365.59      160494.26    
     36700   490.42557      6843674.3      6724.9433      48.731617      2.3577398      159304.38      160465.1     
     36800   486.51891      6846705        6724.9433      48.731617      2.3577398      159378.99      160530.47    
     36900   501.1135       6849623.5      6724.9433      48.731617      2.3577398      159443.63      160629.65    
     37000   521.02565      6849895.7      6724.9433      48.731617      2.3577398      159443.48      160676.63    
     37100   514.81856      6848684.1      6724.9433      48.731617      2.3577398      159416.02      160634.48    
     37200   504.23862      6845485.7      6724.9433      48.731617      2.3577398      159344.24      160537.65    
     37300   502.65836      6843427.2      6724.9433      48.731617      2.3577398      159293.51      160483.18    
     37400   480.56115      6846026.5      6724.9433      48.731617      2.3577398      159365.43      160502.81    
     37500   487.85138      6848827.7      6724.9433      48.731617      2.3577398      159430.91      160585.54    
     37600   514.12019      6849664        6724.9433      48.731617      2.3577398      159440.76      160657.56    
     37700   505.24772      6850299.2      6724.9433      48.731617      2.3577398      159458.81      160654.61    
     37800   497.39505      6848110.5      6724.9433      48.731617      2.3577398      159408.55      160585.77    
     37900   480.37517      6846064.6      6724.9433      48.731617      2.3577398      159366.73      160503.67    
     38000   507.0888       6843194.9      6724.9433      48.731617      2.3577398      159285.73      160485.88    
     38100   487.75071      6846944        6724.9433      48.731617      2.3577398      159384.39      160538.78    
     38200   505.66693      6849041.5      6724.9433      48.731617      2.3577398      159428.28      160625.07    
     38300   504.21069      6851050        6724.9433      48.731617      2.3577398      159478         160671.35    
     38400   521.13506      6848026.4      6724.9433      48.731617      2.3577398      159397.72      160631.12    
     38500   483.93448      6847248.5      6724.9433      48.731617      2.3577398      159394.34      160539.7     
     38600   470.20613      6845698.7      6724.9433      48.731617      2.3577398      159361.36      160474.22    
     38700   497.62349      6844446.9      6724.9433      48.731617      2.3577398      159320.29      160498.05    
     38800   487.49268      6849036.9      6724.9433      48.731617      2.3577398      159434.47      160588.25    
     38900   532.50047      6848879.4      6724.9433      48.731617      2.3577398      159413.3       160673.61    
     39000   500.16451      6851034.6      6724.9433      48.731617      2.3577398      159478.82      160662.59    
     39100   491.03097      6848159.3      6724.9433      48.731617      2.3577398      159412.79      160574.94    
     39200   472.192        6845907.1      6724.9433      48.731617      2.3577398      159364.85      160482.41    
     39300   473.57225      6845175.2      6724.9433      48.731617      2.3577398      159347.64      160468.47    
     39400   495.77685      6846755.3      6724.9433      48.731617      2.3577398      159376.6       160549.98    
     39500   502.50831      6850583.9      6724.9433      48.731617      2.3577398      159465.76      160655.07    
     39600   517.77801      6850901.4      6724.9433      48.731617      2.3577398      159468.7       160694.16    
     39700   489.37764      6849798.4      6724.9433      48.731617      2.3577398      159452.58      160610.82    
     39800   494.10104      6844776.4      6724.9433      48.731617      2.3577398      159328.78      160498.2     
     39900   465.55328      6845272.1      6724.9433      48.731617      2.3577398      159352.1       160453.95    
     40000   498.40703      6845287.5      6724.9433      48.731617      2.3577398      159340.15      160519.77    
     40100   532.61917      6847259.8      6724.9433      48.731617      2.3577398      159375.07      160635.65    
     40200   531.34845      6849914.2      6724.9433      48.731617      2.3577398      159439.52      160697.09    
     40300   517.54692      6848598.6      6724.9433      48.731617      2.3577398      159412.97      160637.89    
     40400   493.74135      6845848.3      6724.9433      48.731617      2.3577398      159355.67      160524.24    
     40500   477.50138      6844464.6      6724.9433      48.731617      2.3577398      159327.94      160458.07    
     40600   491.99961      6844672.5      6724.9433      48.731617      2.3577398      159327.17      160491.62    
     40700   510.30385      6847890.2      6724.9433      48.731617      2.3577398      159399.24      160607.01    
     40800   521.90551      6850661.6      6724.9433      48.731617      2.3577398      159461.52      160696.75    
     40900   521.98847      6849354.8      6724.9433      48.731617      2.3577398      159429.94      160665.36    
     41000   501.10998      6846458.1      6724.9433      48.731617      2.3577398      159368.03      160554.04    
     41100   478.67401      6844493.3      6724.9433      48.731617      2.3577398      159328.35      160461.26    
     41200   490.57883      6844128.4      6724.9433      48.731617      2.3577398      159314.67      160475.75    
     41300   510.62798      6846645.1      6724.9433      48.731617      2.3577398      159368.18      160576.72    
     41400   512.40736      6850452.3      6724.9433      48.731617      2.3577398      159460.83      160673.57    
     41500   525.88038      6849546.9      6724.9433      48.731617      2.3577398      159433.24      160677.87    
     41600   521.88342      6846284.7      6724.9433      48.731617      2.3577398      159355.47      160590.64    
     41700   478.22116      6845638.9      6724.9433      48.731617      2.3577398      159356.83      160488.66    
     41800   464.31534      6845988.5      6724.9433      48.731617      2.3577398      159370.46      160469.39    
     41900   506.99465      6845519.9      6724.9433      48.731617      2.3577398      159342.21      160542.14    
     42000   518.09023      6848814        6724.9433      48.731617      2.3577398      159417.65      160643.85    
     42100   529.74444      6849643.5      6724.9433      48.731617      2.3577398      159432.91      160686.68    
     42200   505.05963      6848936.1      6724.9433      48.731617      2.3577398      159426.46      160621.81    
     42300   492.04901      6845791.8      6724.9433      48.731617      2.3577398      159356.05      160520.62    
     42400   484.22368      6844371.1      6724.9433      48.731617      2.3577398      159323.85      160469.89    
     42500   482.71785      6846111.8      6724.9433      48.731617      2.3577398      159366.54      160509.02    
     42600   507.93556      6848115.8      6724.9433      48.731617      2.3577398      159404.9       160607.06    
     42700   522.34473      6849674.1      6724.9433      48.731617      2.3577398      159436.98      160673.25    
     42800   545.46785      6846908.3      6724.9433      48.731617      2.3577398      159361.71      160652.7     
     42900   473.88517      6848707.8      6724.9433      48.731617      2.3577398      159432.12      160553.69    
     43000   484.31668      6844847.5      6724.9433      48.731617      2.3577398      159335.42      160481.68    
     43100   479.46353      6845710.1      6724.9433      48.731617      2.3577398      159357.92      160492.7     
     43200   499.89975      6847380.6      6724.9433      48.731617      2.3577398      159389.98      160573.12    
     43300   509.27531      6850214.1      6724.9433      48.731617      2.3577398      159455.22      160660.55    
     43400   506.01671      6850732.9      6724.9433      48.731617      2.3577398      159468.54      160666.16    
     43500   503.23712      6847572.6      6724.9433      48.731617      2.3577398      159393.27      160584.31    
     43600   483.29496      6845630.7      6724.9433      48.731617      2.3577398      159354.71      160498.56    
     43700   496.78325      6843924.3      6724.9433      48.731617      2.3577398      159307.18      160482.95    
     43800   483.5108       6847455.8      6724.9433      48.731617      2.3577398      159398.95      160543.31    
     43900   517.17554      6848512.1      6724.9433      48.731617      2.3577398      159410.9       160634.93    
     44000   530.91399      6848794.1      6724.9433      48.731617      2.3577398      159413.17      160669.72    
     44100   511.43752      6848281.2      6724.9433      48.731617      2.3577398      159407.96      160618.41    
     44200   487.37162      6846420.9      6724.9433      48.731617      2.3577398      159372.26      160525.76    
     44300   471.56296      6845810.7      6724.9433      48.731617      2.3577398      159363.19      160479.26    
     44400   477.9374       6846974.6      6724.9433      48.731617      2.3577398      159389.27      160520.44    
     44500   514.49222      6847642.9      6724.9433      48.731617      2.3577398      159391.76      160609.44    
     44600   514.93265      6849897.7      6724.9433      48.731617      2.3577398      159445.34      160664.06    
     44700   516.51597      6848590.7      6724.9433      48.731617      2.3577398      159413.55      160636.02    
     44800   490.97113      6847093.9      6724.9433      48.731617      2.3577398      159387.75      160549.77    
     44900   482.24565      6845499.2      6724.9433      48.731617      2.3577398      159351.75      160493.11    
     45000   482.87811      6845975.1      6724.9433      48.731617      2.3577398      159362.28      160505.14    
     45100   509.82464      6846870.6      6724.9433      48.731617      2.3577398      159373.98      160580.61    
     45200   495.4307       6850910.1      6724.9433      48.731617      2.3577398      159477.37      160649.93    
     45300   519.12473      6849067.1      6724.9433      48.731617      2.3577398      159423.47      160652.12    
     45400   505.28302      6847038.4      6724.9433      48.731617      2.3577398      159379.63      160575.51    
     45500   485.80756      6845624.9      6724.9433      48.731617      2.3577398      159352.56      160502.35    
     45600   484.78465      6845592.3      6724.9433      48.731617      2.3577398      159352.73      160500.1     
     45700   497.84298      6846954.7      6724.9433      48.731617      2.3577398      159381.07      160559.35    
     45800   523.26836      6847894.9      6724.9433      48.731617      2.3577398      159394.1       160632.55    
     45900   511.8782       6849311        6724.9433      48.731617      2.3577398      159432.09      160643.59    
     46000   515.0554       6847117.8      6724.9433      48.731617      2.3577398      159377.94      160596.95    
     46100   504.59736      6845458.1      6724.9433      48.731617      2.3577398      159341.57      160535.83    
     46200   470.0323       6846899.7      6724.9433      48.731617      2.3577398      159390.43      160502.89    
     46300   481.84793      6847325.9      6724.9433      48.731617      2.3577398      159395.87      160536.29    
     46400   497.45008      6848714.1      6724.9433      48.731617      2.3577398      159423.7       160601.05    
     46500   516.83363      6848802.8      6724.9433      48.731617      2.3577398      159417.62      160640.84    
     46600   494.6307       6849762.1      6724.9433      48.731617      2.3577398      159450.96      160621.63    
     46700   492.66678      6847343.2      6724.9433      48.731617      2.3577398      159393.15      160559.18    
     46800   503.89258      6844447        6724.9433      48.731617      2.3577398      159317.36      160509.95    
     46900   501.19392      6845006.9      6724.9433      48.731617      2.3577398      159333.25      160519.46    
     47000   505.41095      6846924.9      6724.9433      48.731617      2.3577398      159377.35      160573.54    
     47100   519.92662      6848122.3      6724.9433      48.731617      2.3577398      159399.79      160630.33    
     47200   499.79363      6849867.2      6724.9433      48.731617      2.3577398      159451.08      160633.97    
     47300   485.00178      6848892        6724.9433      48.731617      2.3577398      159433.44      160581.32    
     47400   511.24482      6844780.3      6724.9433      48.731617      2.3577398      159322.97      160532.96    
     47500   476.1873       6846902.7      6724.9433      48.731617      2.3577398      159387.75      160514.78    
     47600   501.49027      6846000        6724.9433      48.731617      2.3577398      159356.37      160543.28    
     47700   508.4888       6848096.1      6724.9433      48.731617      2.3577398      159403.79      160607.26    
     47800   506.29552      6849608.2      6724.9433      48.731617      2.3577398      159441.75      160640.03    
     47900   508.99945      6848333.1      6724.9433      48.731617      2.3577398      159410.37      160615.05    
     48000   494.0385       6846832.5      6724.9433      48.731617      2.3577398      159379.09      160548.36    
     48100   484.49736      6845665.3      6724.9433      48.731617      2.3577398      159354.51      160501.2     
     48200   479.47617      6846998.7      6724.9433      48.731617      2.3577398      159389.62      160524.43    
     48300   506.53097      6847725.6      6724.9433      48.731617      2.3577398      159395.95      160594.79    
     48400   529.69079      6847678.2      6724.9433      48.731617      2.3577398      159385.59      160639.24    
     48500   514.01668      6848470.8      6724.9433      48.731617      2.3577398      159411.74      160628.3     
     48600   509.765        6846559.7      6724.9433      48.731617      2.3577398      159366.81      160573.3     
     48700   479.91161      6846590.4      6724.9433      48.731617      2.3577398      159378.74      160514.58    
     48800   494.15225      6845079.3      6724.9433      48.731617      2.3577398      159336.36      160505.9     
     48900   511.36548      6846083.2      6724.9433      48.731617      2.3577398      159354.28      160564.56    
     49000   519.20449      6848562.6      6724.9433      48.731617      2.3577398      159412.51      160641.34    
     49100   511.73657      6849376.2      6724.9433      48.731617      2.3577398      159434.69      160645.85    
     49200   514.11778      6846539.8      6724.9433      48.731617      2.3577398      159364.23      160581.03    
     49300   482.76471      6846280.3      6724.9433      48.731617      2.3577398      159370.98      160513.57    
     49400   487.98006      6845468.8      6724.9433      48.731617      2.3577398      159347.91      160502.84    
     49500   500.73157      6846531.4      6724.9433      48.731617      2.3577398      159369.52      160554.64    
     49600   521.60964      6847841.8      6724.9433      48.731617      2.3577398      159393.56      160628.09    
     49700   509.07321      6849676.6      6724.9433      48.731617      2.3577398      159442.77      160647.62    
     49800   507.10287      6847891.7      6724.9433      48.731617      2.3577398      159400.18      160600.37    
     49900   475.77621      6847272.7      6724.9433      48.731617      2.3577398      159397.78      160523.83    
     50000   486.23796      6845343.9      6724.9433      48.731617      2.3577398      159346.92      160497.73    
     50100   510.40165      6845514.9      6724.9433      48.731617      2.3577398      159339.72      160547.72    
     50200   531.18615      6847121.6      6724.9433      48.731617      2.3577398      159371.9       160629.09    
     50300   505.86271      6849872.8      6724.9433      48.731617      2.3577398      159449.42      160646.68    
     50400   502.98998      6848052.9      6724.9433      48.731617      2.3577398      159405.68      160596.14    
     50500   482.75133      6846868.5      6724.9433      48.731617      2.3577398      159384.09      160526.65    
     50600   484.36609      6845691.6      6724.9433      48.731617      2.3577398      159355.07      160501.45    
     50700   487.69267      6847385.9      6724.9433      48.731617      2.3577398      159395.57      160549.82    
     50800   531.04387      6846881.6      6724.9433      48.731617      2.3577398      159365.59      160622.45    
     50900   511.81498      6849072.3      6724.9433      48.731617      2.3577398      159426.66      160638.01    
     51000   520.42936      6846467.3      6724.9433      48.731617      2.3577398      159360.72      160592.45    
     51100   500.0687       6845576.6      6724.9433      48.731617      2.3577398      159347.25      160530.79    
     51200   491.25412      6845801.7      6724.9433      48.731617      2.3577398      159355.15      160517.83    
     51300   480.89096      6848099.6      6724.9433      48.731617      2.3577398      159414.78      160552.93    
     51400   520.71524      6847020.7      6724.9433      48.731617      2.3577398      159372.96      160605.37    
     51500   503.08012      6849334.5      6724.9433      48.731617      2.3577398      159437.28      160627.95    
     51600   490.14005      6849111.2      6724.9433      48.731617      2.3577398      159435.95      160596       
     51700   480.99801      6847836.8      6724.9433      48.731617      2.3577398      159408.85      160547.26    
     51800   493.54344      6846320        6724.9433      48.731617      2.3577398      159365.54      160533.64    
     51900   515.57014      6845558.4      6724.9433      48.731617      2.3577398      159339.2       160559.44    
     52000   512.75666      6847012.5      6724.9433      48.731617      2.3577398      159376.03      160589.61    
     52100   502.05967      6848425        6724.9433      48.731617      2.3577398      159415.07      160603.33    
     52200   491.26523      6848472.6      6724.9433      48.731617      2.3577398      159420.35      160583.06    
     52300   502.68855      6846801.8      6724.9433      48.731617      2.3577398      159374.81      160564.55    
     52400   496.04082      6847100.3      6724.9433      48.731617      2.3577398      159386.19      160560.2     
     52500   495.89762      6847087.4      6724.9433      48.731617      2.3577398      159384.76      160558.43    
     52600   507.4605       6847010        6724.9433      48.731617      2.3577398      159378.28      160579.32    
     52700   519.93336      6846421.1      6724.9433      48.731617      2.3577398      159359.44      160590       
     52800   507.87322      6846991.5      6724.9433      48.731617      2.3577398      159377.39      160579.41    
     52900   505.04881      6846640.1      6724.9433      48.731617      2.3577398      159371.49      160566.82    
     53000   507.7635       6846544.8      6724.9433      48.731617      2.3577398      159366.52      160568.27    
     53100   505.11847      6847136.8      6724.9433      48.731617      2.3577398      159382.84      160578.34    
     53200   502.34115      6847309.8      6724.9433      48.731617      2.3577398      159388.26      160577.18    
     53300   497.32866      6847607.4      6724.9433      48.731617      2.3577398      159397.08      160574.14    
     53400   516.57751      6845887.8      6724.9433      48.731617      2.3577398      159348.46      160571.07    
     53500   494.42832      6847612.8      6724.9433      48.731617      2.3577398      159399.1       160569.3     
     53600   501.72181      6847583.6      6724.9433      48.731617      2.3577398      159394.33      160581.78    
     53700   501.08524      6847355.1      6724.9433      48.731617      2.3577398      159388.92      160574.87    
     53800   491.37975      6847944.5      6724.9433      48.731617      2.3577398      159406.72      160569.69    
     53900   506.57413      6846658.4      6724.9433      48.731617      2.3577398      159370.5       160569.45    
     54000   506.29067      6846990        6724.9433      48.731617      2.3577398      159378.4       160576.67    
     54100   510.18146      6847001.2      6724.9433      48.731617      2.3577398      159377.53      160585       
     54200   495.32964      6847890        6724.9433      48.731617      2.3577398      159404.58      160576.91    
     54300   492.36397      6847461.6      6724.9433      48.731617      2.3577398      159395.63      160560.93    
     54400   486.36349      6847815.1      6724.9433      48.731617      2.3577398      159406.37      160557.48    
     54500   510.18671      6846474.3      6724.9433      48.731617      2.3577398      159364.22      160571.71    
     54600   525.25317      6846037.2      6724.9433      48.731617      2.3577398      159347.91      160591.06    
     54700   473.61714      6850380.6      6724.9433      48.731617      2.3577398      159473.35      160594.29    
     54800   513.07672      6846788.1      6724.9433      48.731617      2.3577398      159371.25      160585.58    
     54900   499.61076      6846575.6      6724.9433      48.731617      2.3577398      159371.2       160553.66    
     55000   491.78746      6846463.6      6724.9433      48.731617      2.3577398      159371.91      160535.86    
     55100   501.46487      6846673.8      6724.9433      48.731617      2.3577398      159371.68      160558.53    
     55200   501.92148      6848528.6      6724.9433      48.731617      2.3577398      159416.65      160604.58    
     55300   490.94336      6849969.8      6724.9433      48.731617      2.3577398      159457.14      160619.09    
     55400   513.13256      6846776.6      6724.9433      48.731617      2.3577398      159370.38      160584.84    
     55500   488.25528      6846788        6724.9433      48.731617      2.3577398      159380.05      160535.64    
     55600   519.22604      6843808.3      6724.9433      48.731617      2.3577398      159296.2       160525.08    
     55700   492.61064      6847164.2      6724.9433      48.731617      2.3577398      159387.76      160553.65    
     55800   510.1373       6848002.6      6724.9433      48.731617      2.3577398      159400.92      160608.3     
     55900   499.39217      6849992.8      6724.9433      48.731617      2.3577398      159454.47      160636.41    
     56000   529.3965       6846309.4      6724.9433      48.731617      2.3577398      159353.02      160605.97    
     56100   505.10171      6845423.1      6724.9433      48.731617      2.3577398      159340.76      160536.22    
     56200   483.48642      6845503.3      6724.9433      48.731617      2.3577398      159350.42      160494.72    
     56300   480.55557      6847250.8      6724.9433      48.731617      2.3577398      159394.65      160532.01    
     56400   529.69828      6846948.1      6724.9433      48.731617      2.3577398      159368.33      160622       
     56500   516.05427      6849758.7      6724.9433      48.731617      2.3577398      159441.63      160663.01    
     56600   511.48563      6848217.3      6724.9433      48.731617      2.3577398      159405.68      160616.25    
     56700   483.44446      6846878.4      6724.9433      48.731617      2.3577398      159384.05      160528.25    
     56800   489.50558      6844608.5      6724.9433      48.731617      2.3577398      159327.01      160485.55    
     56900   494.48561      6845778.4      6724.9433      48.731617      2.3577398      159354.09      160524.42    
     57000   495.39292      6849208.1      6724.9433      48.731617      2.3577398      159437.43      160609.9     
     57100   515.30805      6850202.4      6724.9433      48.731617      2.3577398      159451.8       160671.41    
     57200   510.77732      6848981.1      6724.9433      48.731617      2.3577398      159425.81      160634.7     
     57300   493.8418       6846467.2      6724.9433      48.731617      2.3577398      159370.89      160539.7     
     57400   485.16745      6844775        6724.9433      48.731617      2.3577398      159333.02      160481.3     
     57500   488.01549      6845471.6      6724.9433      48.731617      2.3577398      159348.88      160503.9     
     57600   506.55426      6847747.7      6724.9433      48.731617      2.3577398      159396.38      160595.28    
     57700   518.28871      6849709.6      6724.9433      48.731617      2.3577398      159440.51      160667.18    
     57800   507.17205      6849702.4      6724.9433      48.731617      2.3577398      159444.19      160644.54    
     57900   498.39661      6847150.4      6724.9433      48.731617      2.3577398      159385.19      160564.77    
     58000   478.16061      6845921.3      6724.9433      48.731617      2.3577398      159363.37      160495.06    
     58100   466.00144      6846972.7      6724.9433      48.731617      2.3577398      159394.22      160497.13    
     58200   497.93882      6847247.4      6724.9433      48.731617      2.3577398      159387.6       160566.11    
     58300   525.03944      6848155.6      6724.9433      48.731617      2.3577398      159399.17      160641.82    
     58400   519.33445      6849178.8      6724.9433      48.731617      2.3577398      159426.59      160655.74    
     58500   496.56177      6848513.9      6724.9433      48.731617      2.3577398      159418.59      160593.83    
     58600   496.5003       6845610.1      6724.9433      48.731617      2.3577398      159348.5       160523.6     
     58700   480.84187      6845739.5      6724.9433      48.731617      2.3577398      159357.47      160495.51    
     58800   488.40889      6846740        6724.9433      48.731617      2.3577398      159378.62      160534.57    
     58900   524.62965      6846950.2      6724.9433      48.731617      2.3577398      159370.85      160612.52    
     59000   510.5117       6849739.3      6724.9433      48.731617      2.3577398      159444         160652.26    
     59100   496.84997      6849355.5      6724.9433      48.731617      2.3577398      159439.69      160615.62    
     59200   490.86375      6847356.4      6724.9433      48.731617      2.3577398      159392.83      160554.59    
     59300   482.49174      6846410        6724.9433      48.731617      2.3577398      159373.81      160515.76    
     59400   482.34626      6846774.4      6724.9433      48.731617      2.3577398      159382.8       160524.4     
     59500   502.1436       6847094.3      6724.9433      48.731617      2.3577398      159381.53      160569.98    
     59600   513.28455      6848103.3      6724.9433      48.731617      2.3577398      159402.39      160617.22    
     59700   487.24778      6850920.5      6724.9433      48.731617      2.3577398      159480.91      160634.11    
     59800   502.00423      6848386.8      6724.9433      48.731617      2.3577398      159414.22      160602.34    
     59900   487.58317      6847107        6724.9433      48.731617      2.3577398      159388.21      160542.21    
     60000   494.68239      6845148.1      6724.9433      48.731617      2.3577398      159339.01      160509.81    
     60100   507.54248      6845099.8      6724.9433      48.731617      2.3577398      159331.3       160532.53    
     60200   494.52715      6848556        6724.9433      48.731617      2.3577398      159420.74      160591.17    
     60300   508.11765      6849345        6724.9433      48.731617      2.3577398      159434.1       160636.69    
     60400   514.0508       6848592.2      6724.9433      48.731617      2.3577398      159414.23      160630.86    
     60500   508.25979      6846834.5      6724.9433      48.731617      2.3577398      159372.85      160575.79    
     60600   492.14204      6845673.6      6724.9433      48.731617      2.3577398      159352.11      160516.89    
     60700   482.06491      6845805.6      6724.9433      48.731617      2.3577398      159358.88      160499.82    
     60800   480.15693      6848165.3      6724.9433      48.731617      2.3577398      159417.03      160553.45    
     60900   506.46102      6849338.2      6724.9433      48.731617      2.3577398      159435.61      160634.28    
     61000   537.79905      6847618.3      6724.9433      48.731617      2.3577398      159381.4       160654.24    
     61100   529.39252      6846386.6      6724.9433      48.731617      2.3577398      159355.73      160608.67    
     61200   502.47531      6845256.7      6724.9433      48.731617      2.3577398      159338.41      160527.65    
     61300   475.68324      6845686.4      6724.9433      48.731617      2.3577398      159357.63      160483.46    
     61400   486.19942      6846629.8      6724.9433      48.731617      2.3577398      159378.4       160529.12    
     61500   526.54427      6846951.1      6724.9433      48.731617      2.3577398      159369.25      160615.46    
     61600   518.75255      6849756.7      6724.9433      48.731617      2.3577398      159439.84      160667.6     
     61700   526.57211      6847421.8      6724.9433      48.731617      2.3577398      159380.85      160627.13    
     61800   484.67972      6847338.7      6724.9433      48.731617      2.3577398      159395.76      160542.89    
     61900   492.27194      6844434.5      6724.9433      48.731617      2.3577398      159321.84      160486.93    
     62000   480.83779      6846056.1      6724.9433      48.731617      2.3577398      159365.52      160503.55    
     62100   521.76806      6846203.8      6724.9433      48.731617      2.3577398      159353.75      160588.65    
     62200   501.68512      6850736.4      6724.9433      48.731617      2.3577398      159471.51      160658.88    
     62300   516.60595      6849241.4      6724.9433      48.731617      2.3577398      159428.42      160651.11    
     62400   509.84608      6846777.6      6724.9433      48.731617      2.3577398      159371.13      160577.81    
     62500   478.89222      6845839.6      6724.9433      48.731617      2.3577398      159362.07      160495.5     
     62600   463.38042      6846669.7      6724.9433      48.731617      2.3577398      159387.32      160484.04    
     62700   483.52194      6848067.9      6724.9433      48.731617      2.3577398      159413.82      160558.2     
     62800   504.38214      6849905.2      6724.9433      48.731617      2.3577398      159449.16      160642.91    
     62900   512.36129      6850086.3      6724.9433      48.731617      2.3577398      159451.57      160664.21    
     63000   505.21386      6848195.8      6724.9433      48.731617      2.3577398      159408.06      160603.78    
     63100   486.82976      6846112.6      6724.9433      48.731617      2.3577398      159365.5       160517.71    
     63200   496.80471      6843909.4      6724.9433      48.731617      2.3577398      159306.77      160482.59    
     63300   500.48947      6845427.9      6724.9433      48.731617      2.3577398      159343.24      160527.78    
     63400   520.0094       6847657.9      6724.9433      48.731617      2.3577398      159389.57      160620.31    
     63500   505.09384      6850798.2      6724.9433      48.731617      2.3577398      159470.82      160666.26    
     63600   511.64221      6848425.9      6724.9433      48.731617      2.3577398      159411.64      160622.58    
     63700   503.16135      6845658.2      6724.9433      48.731617      2.3577398      159347.64      160538.51    
     63800   494.42161      6844569.9      6724.9433      48.731617      2.3577398      159324.07      160494.25    
     63900   470.80378      6847245.8      6724.9433      48.731617      2.3577398      159397.39      160511.67    
     64000   489.78919      6848780.9      6724.9433      48.731617      2.3577398      159429.39      160588.61    
     64100   509.94553      6849965.4      6724.9433      48.731617      2.3577398      159448.21      160655.13    
     64200   523.18519      6848484        6724.9433      48.731617      2.3577398      159407.17      160645.42    
     64300   498.3942       6847477.3      6724.9433      48.731617      2.3577398      159393.09      160572.67    
     64400   499.03653      6844532.3      6724.9433      48.731617      2.3577398      159321.57      160502.67    
     64500   494.56713      6844711.3      6724.9433      48.731617      2.3577398      159326.57      160497.1     
     64600   499.56492      6846917.7      6724.9433      48.731617      2.3577398      159379.19      160561.54    
     64700   528.69261      6847730.5      6724.9433      48.731617      2.3577398      159387.63      160638.92    
     64800   540.90785      6847294.3      6724.9433      48.731617      2.3577398      159371.82      160652.02    
     64900   495.17617      6848590.1      6724.9433      48.731617      2.3577398      159421.93      160593.89    
     65000   474.28125      6847458.6      6724.9433      48.731617      2.3577398      159402.41      160524.93    
     65100   502.07084      6843952.8      6724.9433      48.731617      2.3577398      159305.93      160494.21    
     65200   495.19188      6846284.9      6724.9433      48.731617      2.3577398      159365.15      160537.15    
[...]
    384300   504.4957       6850547.2      6724.9433      48.731617      2.3577398      159465.39      160659.42    
    384400   523.356        6847560.9      6724.9433      48.731617      2.3577398      159385.14      160623.8     
    384500   516.61028      6845896.7      6724.9433      48.731617      2.3577398      159348.53      160571.23    
    384600   493.04665      6846975.6      6724.9433      48.731617      2.3577398      159383.26      160550.18    
    384700   509.36509      6845659.7      6724.9433      48.731617      2.3577398      159345.48      160551.03    
    384800   509.76491      6847562.3      6724.9433      48.731617      2.3577398      159390.89      160597.38    
    384900   526.93153      6850125.1      6724.9433      48.731617      2.3577398      159446.72      160693.84    
    385000   517.97121      6849231.2      6724.9433      48.731617      2.3577398      159428.34      160654.25    
    385100   515.32332      6846875.7      6724.9433      48.731617      2.3577398      159371.5       160591.15    
    385200   500.47551      6846598.5      6724.9433      48.731617      2.3577398      159371.32      160555.83    
    385300   478.61741      6848175        6724.9433      48.731617      2.3577398      159418.06      160550.84    
    385400   507.63009      6847101.9      6724.9433      48.731617      2.3577398      159380.22      160581.66    
    385500   538.314        6847711        6724.9433      48.731617      2.3577398      159384.54      160658.61    
    385600   502.01782      6851154.3      6724.9433      48.731617      2.3577398      159481.31      160669.46    
    385700   508.27786      6847378.3      6724.9433      48.731617      2.3577398      159386.62      160589.59    
    385800   496.41593      6846844.9      6724.9433      48.731617      2.3577398      159377.88      160552.78    
    385900   503.65705      6846195.7      6724.9433      48.731617      2.3577398      159359.43      160551.46    
    386000   524.53516      6845674.5      6724.9433      48.731617      2.3577398      159339         160580.45    
    386100   505.38808      6850015.2      6724.9433      48.731617      2.3577398      159452.39      160648.52    
    386200   522.51573      6849062.9      6724.9433      48.731617      2.3577398      159422.54      160659.21    
    386300   504.7027       6846083.1      6724.9433      48.731617      2.3577398      159357.2       160551.71    
    386400   497.38305      6845609.5      6724.9433      48.731617      2.3577398      159348.26      160525.45    
    386500   481.68862      6848087.5      6724.9433      48.731617      2.3577398      159414.33      160554.37    
    386600   511.6016       6847726.3      6724.9433      48.731617      2.3577398      159395.1       160605.94    
    386700   513.23255      6848658.5      6724.9433      48.731617      2.3577398      159416.32      160631.02    
    386800   496.97575      6848076        6724.9433      48.731617      2.3577398      159407.21      160583.43    
    386900   469.77231      6846769.5      6724.9433      48.731617      2.3577398      159387.38      160499.22    
    387000   500.89281      6845020.7      6724.9433      48.731617      2.3577398      159331.59      160517.09    
    387100   519.88016      6846043.1      6724.9433      48.731617      2.3577398      159349.82      160580.25    
    387200   501.44113      6848527.3      6724.9433      48.731617      2.3577398      159417.17      160603.96    
    387300   495.0527       6848713.8      6724.9433      48.731617      2.3577398      159424.55      160596.22    
    387400   509.04266      6846741.5      6724.9433      48.731617      2.3577398      159371.34      160576.12    
    387500   489.554        6847802.8      6724.9433      48.731617      2.3577398      159404.77      160563.43    
    387600   494.99301      6846714.2      6724.9433      48.731617      2.3577398      159375.76      160547.29    
    387700   487.40506      6846081.1      6724.9433      48.731617      2.3577398      159363.36      160516.93    
    387800   502.19477      6845953.5      6724.9433      48.731617      2.3577398      159353.92      160542.5     
    387900   504.7227       6847873.4      6724.9433      48.731617      2.3577398      159400.91      160595.47    
    388000   503.49616      6849104.1      6724.9433      48.731617      2.3577398      159429.98      160621.64    
    388100   526.84517      6846850.4      6724.9433      48.731617      2.3577398      159366.09      160613.01    
    388200   484.78628      6846785.2      6724.9433      48.731617      2.3577398      159381.81      160529.18    
    388300   498.09802      6844820.4      6724.9433      48.731617      2.3577398      159328.5       160507.38    
    388400   494.11482      6846662.4      6724.9433      48.731617      2.3577398      159374.56      160544.01    
    388500   516.81992      6846632.9      6724.9433      48.731617      2.3577398      159366.01      160589.2     
    388600   497.40483      6848387        6724.9433      48.731617      2.3577398      159415.97      160593.21    
    388700   513.45259      6846978.9      6724.9433      48.731617      2.3577398      159375.35      160590.57    
    388800   486.28387      6848307.4      6724.9433      48.731617      2.3577398      159417.52      160568.44    
    388900   494.85395      6845585.2      6724.9433      48.731617      2.3577398      159348.85      160520.05    
    389000   489.53979      6844138.1      6724.9433      48.731617      2.3577398      159315.62      160474.24    
    389100   486.03076      6845522.9      6724.9433      48.731617      2.3577398      159350.33      160500.65    
    389200   492.21325      6848627.7      6724.9433      48.731617      2.3577398      159424.11      160589.07    
    389300   519.9486       6847571.4      6724.9433      48.731617      2.3577398      159386.24      160616.83    
    389400   497.56245      6848187.6      6724.9433      48.731617      2.3577398      159410.72      160588.33    
    389500   498.18771      6845601.4      6724.9433      48.731617      2.3577398      159347.07      160526.16    
    389600   483.76581      6845708.9      6724.9433      48.731617      2.3577398      159356.29      160501.25    
    389700   509.03256      6846334.8      6724.9433      48.731617      2.3577398      159361.13      160565.89    
    389800   531.03549      6847466        6724.9433      48.731617      2.3577398      159380.48      160637.32    
    389900   504.99916      6848953.2      6724.9433      48.731617      2.3577398      159426.75      160621.97    
    390000   484.21959      6848125.4      6724.9433      48.731617      2.3577398      159413.95      160559.98    
    390100   485.34615      6846697.3      6724.9433      48.731617      2.3577398      159379.46      160528.16    
    390200   493.59568      6846386.7      6724.9433      48.731617      2.3577398      159368.7       160536.92    
    390300   511.9826       6849392.1      6724.9433      48.731617      2.3577398      159434.39      160646.13    
    390400   534.57482      6848028.3      6724.9433      48.731617      2.3577398      159393.12      160658.33    
    390500   510.525        6847482.8      6724.9433      48.731617      2.3577398      159387.87      160596.16    
    390600   484.60226      6847565.8      6724.9433      48.731617      2.3577398      159401.29      160548.23    
    390700   498.3565       6846461.4      6724.9433      48.731617      2.3577398      159368.9       160548.39    
    390800   508.22385      6847177.5      6724.9433      48.731617      2.3577398      159381.09      160583.94    
    390900   524.23825      6849537.2      6724.9433      48.731617      2.3577398      159432.49      160673.24    
    391000   506.15962      6851513.1      6724.9433      48.731617      2.3577398      159488.48      160686.44    
    391100   512.7333       6848302.5      6724.9433      48.731617      2.3577398      159407.19      160620.71    
    391200   487.70343      6848953.9      6724.9433      48.731617      2.3577398      159433.39      160587.67    
    391300   502.06252      6846677.9      6724.9433      48.731617      2.3577398      159372.34      160560.61    
    391400   486.48001      6847030.3      6724.9433      48.731617      2.3577398      159386.36      160537.75    
    391500   472.93874      6847453.5      6724.9433      48.731617      2.3577398      159403.43      160522.77    
    391600   492.14743      6847894        6724.9433      48.731617      2.3577398      159405.63      160570.43    
    391700   514.27818      6848630.3      6724.9433      48.731617      2.3577398      159414.61      160631.78    
    391800   515.28109      6848807.3      6724.9433      48.731617      2.3577398      159417.97      160637.52    
    391900   514.13092      6845680.8      6724.9433      48.731617      2.3577398      159343.49      160560.32    
    392000   497.30751      6845384.2      6724.9433      48.731617      2.3577398      159342.18      160519.19    
    392100   483.83859      6847346.9      6724.9433      48.731617      2.3577398      159395.62      160540.75    
    392200   498.54568      6848228.6      6724.9433      48.731617      2.3577398      159410.39      160590.33    
    392300   494.24468      6849425.4      6724.9433      48.731617      2.3577398      159442.6       160612.36    
    392400   517.31286      6846939.5      6724.9433      48.731617      2.3577398      159372.77      160597.13    
    392500   499.21615      6845031.6      6724.9433      48.731617      2.3577398      159334.24      160515.76    
    392600   490.24105      6845303.2      6724.9433      48.731617      2.3577398      159343.66      160503.94    
    392700   495.69373      6847189.1      6724.9433      48.731617      2.3577398      159386.77      160559.96    
    392800   505.15711      6848546.7      6724.9433      48.731617      2.3577398      159416.93      160612.52    
    392900   496.72963      6849080.9      6724.9433      48.731617      2.3577398      159433.84      160609.48    
    393000   499.03609      6847915.4      6724.9433      48.731617      2.3577398      159403.66      160584.76    
    393100   486.68692      6847440.6      6724.9433      48.731617      2.3577398      159397.24      160549.11    
    393200   486.44595      6845754.8      6724.9433      48.731617      2.3577398      159356.25      160507.55    
    393300   483.61112      6842963.7      6724.9433      48.731617      2.3577398      159289.79      160434.39    
    393400   475.64665      6845349.8      6724.9433      48.731617      2.3577398      159349.83      160475.57    
    393500   489.2008       6847321.1      6724.9433      48.731617      2.3577398      159393.84      160551.66    
    393600   501.38178      6847909.3      6724.9433      48.731617      2.3577398      159401.53      160588.18    
    393700   504.88879      6848468.4      6724.9433      48.731617      2.3577398      159414.13      160609.08    
    393800   506.25935      6847583.4      6724.9433      48.731617      2.3577398      159392.67      160590.86    
    393900   499.81034      6845227.1      6724.9433      48.731617      2.3577398      159337.34      160520.27    
    394000   485.78287      6845232.3      6724.9433      48.731617      2.3577398      159343.89      160493.62    
    394100   486.64274      6847539.7      6724.9433      48.731617      2.3577398      159399.44      160551.2     
    394200   491.38066      6850281.7      6724.9433      48.731617      2.3577398      159464.18      160627.16    
    394300   501.80883      6849062        6724.9433      48.731617      2.3577398      159430.33      160617.99    
    394400   494.64077      6847660.9      6724.9433      48.731617      2.3577398      159398.74      160569.44    
    394500   464.82535      6848381.3      6724.9433      48.731617      2.3577398      159429.02      160529.15    
    394600   503.16982      6845760.4      6724.9433      48.731617      2.3577398      159349.98      160540.87    
    394700   509.46156      6849431.7      6724.9433      48.731617      2.3577398      159436.96      160642.74    
    394800   517.17053      6849413.6      6724.9433      48.731617      2.3577398      159432.59      160656.61    
    394900   488.62979      6849628.9      6724.9433      48.731617      2.3577398      159449.47      160605.94    
    395000   496.04608      6847282.6      6724.9433      48.731617      2.3577398      159389.29      160563.31    
    395100   495.68772      6847044.7      6724.9433      48.731617      2.3577398      159383.21      160556.38    
    395200   519.05103      6845439.8      6724.9433      48.731617      2.3577398      159335.54      160564.01    
    395300   512.41129      6848144.2      6724.9433      48.731617      2.3577398      159404.85      160617.61    
    395400   527.15464      6850475.6      6724.9433      48.731617      2.3577398      159453.93      160701.58    
    395500   504.50353      6850357.1      6724.9433      48.731617      2.3577398      159460.56      160654.6     
    395600   491.18695      6848851.8      6724.9433      48.731617      2.3577398      159429.37      160591.89    
    395700   501.85131      6846882.6      6724.9433      48.731617      2.3577398      159377.16      160564.92    
    395800   484.23241      6847896.2      6724.9433      48.731617      2.3577398      159408.98      160555.05    
    395900   511.69945      6846239.4      6724.9433      48.731617      2.3577398      159358.13      160569.21    
    396000   501.74065      6849469        6724.9433      48.731617      2.3577398      159439.48      160626.98    
    396100   499.26318      6850643.8      6724.9433      48.731617      2.3577398      159469         160650.64    
    396200   496.24711      6848478.5      6724.9433      48.731617      2.3577398      159418.18      160592.68    
    396300   502.60872      6845308.2      6724.9433      48.731617      2.3577398      159338.64      160528.19    
    396400   494.43383      6846185.2      6724.9433      48.731617      2.3577398      159364.09      160534.3     
    396500   492.24021      6847901.2      6724.9433      48.731617      2.3577398      159404.62      160569.64    
    396600   513.49941      6847839.3      6724.9433      48.731617      2.3577398      159395.55      160610.88    
    396700   503.76285      6849061.2      6724.9433      48.731617      2.3577398      159429.77      160622.05    
    396800   496.22931      6847129.2      6724.9433      48.731617      2.3577398      159384.58      160559.04    
    396900   484.13586      6846058.6      6724.9433      48.731617      2.3577398      159364.85      160510.68    
    397000   476.16717      6847175.8      6724.9433      48.731617      2.3577398      159393.66      160520.64    
    397100   498.15544      6848190        6724.9433      48.731617      2.3577398      159410.72      160589.73    
    397200   504.451        6848876.4      6724.9433      48.731617      2.3577398      159425.54      160619.46    
    397300   508.51689      6847847.4      6724.9433      48.731617      2.3577398      159399.68      160603.22    
    397400   484.92348      6848153.9      6724.9433      48.731617      2.3577398      159414.93      160562.63    
    397500   485.72741      6846407.7      6724.9433      48.731617      2.3577398      159373.47      160523.07    
    397600   476.62862      6843873.3      6724.9433      48.731617      2.3577398      159314.08      160442.15    
    397700   478.65897      6843110.7      6724.9433      48.731617      2.3577398      159294.63      160427.51    
    397800   496.35387      6845290.7      6724.9433      48.731617      2.3577398      159342.03      160516.78    
    397900   517.41252      6846056.1      6724.9433      48.731617      2.3577398      159351.84      160576.43    
    398000   510.87008      6847731.8      6724.9433      48.731617      2.3577398      159394.75      160603.86    
    398100   496.26912      6848618.8      6724.9433      48.731617      2.3577398      159421.27      160595.82    
    398200   507.20197      6846149.2      6724.9433      48.731617      2.3577398      159357.57      160558       
    398300   494.28418      6844732.7      6724.9433      48.731617      2.3577398      159328.21      160498.07    
    398400   474.29476      6846195.3      6724.9433      48.731617      2.3577398      159370.76      160493.3     
    398500   501.52364      6848003        6724.9433      48.731617      2.3577398      159404.44      160591.42    
    398600   519.24422      6847698        6724.9433      48.731617      2.3577398      159391.05      160619.98    
    398700   502.51274      6847865.6      6724.9433      48.731617      2.3577398      159400.91      160590.24    
    398800   497.30331      6846149.1      6724.9433      48.731617      2.3577398      159361.49      160538.49    
    398900   479.13094      6846451.8      6724.9433      48.731617      2.3577398      159375.55      160509.54    
    399000   497.47371      6847995.3      6724.9433      48.731617      2.3577398      159405.84      160583.24    
    399100   499.50846      6850407.4      6724.9433      48.731617      2.3577398      159463.46      160645.68    
    399200   503.56418      6848917.7      6724.9433      48.731617      2.3577398      159426.09      160617.9     
    399300   493.38255      6847262.5      6724.9433      48.731617      2.3577398      159389.54      160557.26    
    399400   482.35388      6847030.9      6724.9433      48.731617      2.3577398      159388.98      160530.6     
    399500   489.28308      6847157.8      6724.9433      48.731617      2.3577398      159390.23      160548.25    
    399600   489.86369      6848737.4      6724.9433      48.731617      2.3577398      159426.86      160586.25    
    399700   513.29065      6847335.5      6724.9433      48.731617      2.3577398      159384.28      160599.12    
    399800   501.72626      6847763.3      6724.9433      48.731617      2.3577398      159399.29      160586.76    
    399900   485.10394      6848041        6724.9433      48.731617      2.3577398      159411.56      160559.69    
    400000   481.31286      6847370.9      6724.9433      48.731617      2.3577398      159398.37      160537.53    
    400100   513.65243      6845374.1      6724.9433      48.731617      2.3577398      159335.97      160551.66    
Loop time of 25.6409 on 64 procs for 400000 steps with 795 atoms

Performance: 336.962 ns/day, 0.071 hours/ns, 15600.080 timesteps/s
99.8% CPU use with 64 MPI tasks x 1 OpenMP threads

MPI task timing breakdown:
Section |  min time  |  avg time  |  max time  |%varavg| %total
---------------------------------------------------------------
Pair    | 2.1239     | 2.7885     | 3.4038     |  18.5 | 10.88
Neigh   | 0.10467    | 0.12725    | 0.1523     |   3.2 |  0.50
Comm    | 14.342     | 15.903     | 17.571     |  18.3 | 62.02
Output  | 0.31478    | 0.31786    | 0.3583     |   0.9 |  1.24
Modify  | 4.2944     | 5.9613     | 7.2162     |  29.7 | 23.25
Other   |            | 0.5426     |            |       |  2.12

Nlocal:        12.4219 ave          16 max          10 min
Histogram: 3 13 0 14 0 27 3 0 3 1
Nghost:        648.188 ave         671 max         627 min
Histogram: 2 3 8 8 11 12 11 7 0 2
Neighs:        824.656 ave        1073 max         670 min
Histogram: 9 7 6 8 19 9 0 4 0 2

Total # of neighbors = 52778
Ave neighs/atom = 66.387421
Neighbor list builds = 4745
Dangerous builds = 23

write_data graphene_single_layer_LJ_795C_after_temp_500K.data ### MODIFY FILE NAME ###
System init for write_data ...
Generated 0 of 0 mixed pair_coeff terms from geometric mixing rule
Total wall time: 0:00:25
