# System definition
read_data graphene_single_layer_x-45_y-45_795_C.data  ### MODIFY FILE NAME ###
Reading data file ...
  orthogonal box = (-1.4464652 -1.4423034 -1.42) to (47.285152 47.149102 1.42)
  8 by 8 by 1 MPI processor grid
  reading atoms ...
  795 atoms
  reading velocities ...
  795 velocities
  read_data CPU = 0.053 seconds
pair_style lj/cut 6
pair_coeff      1 1 0.066047 3.4

# Virtual force wall to keep the cylinder shape
#region myCylinder cylinder z 0. 0. 20.3 -22.079997 505.920003 units box
#fix wall all wall/region myCylinder lj93 1.0 1.0 2.5

# Minimization
timestep 0.25
thermo 100
thermo_style custom step temp press vol lx density pe etotal
dump 2 all custom 1000 graphene_single_layer_LJ_795C_after_temp_700K.lammpstrj id type x y z ### MODIFY FILE NAME ###
min_style cg
minimize 1.0e-6 1.0e-6 100 1000
WARNING: Using 'neigh_modify every 1 delay 0 check yes' setting during minimization (src/min.cpp:187)
Generated 0 of 0 mixed pair_coeff terms from geometric mixing rule
Neighbor list info ...
  update every 1 steps, delay 0 steps, check yes
  max neighbors/atom: 10000, page size: 100000
  master list distance cutoff = 6.4
  ghost atom cutoff = 6.4
  binsize = 3.2, bins = 16 16 1
  1 neighbor lists, perpetual/occasional/extra = 1 0 0
  (1) pair lj/cut, perpetual
      attributes: half, newton on
      pair build: half/bin/atomonly/newton
      stencil: half/bin/3d
      bin: standard
Per MPI rank memory allocation (min/avg/max) = 5.47 | 5.472 | 5.472 Mbytes
   Step          Temp          Press          Volume           Lx          Density         PotEng         TotEng    
         0   923            3.5764745e+08  6724.9433      48.731617      2.3577398      8739313.6      8741498.1    
       100   923            47390520       6724.9433      48.731617      2.3577398      1146833.4      1149017.9    
Loop time of 0.0265942 on 64 procs for 100 steps with 795 atoms

93.3% CPU use with 64 MPI tasks x 1 OpenMP threads

Minimization stats:
  Stopping criterion = max iterations
  Energy initial, next-to-last, final = 
      8739313.57439336   1156380.83320826   1146833.40532139
  Force two-norm initial, final = 757147.49 28301.772
  Force max component initial, final = 127132.22 7330.8006
  Final line search alpha, max atom move = 9.6526089e-06 0.070761352
  Iterations, force evaluations = 100 123

MPI task timing breakdown:
Section |  min time  |  avg time  |  max time  |%varavg| %total
---------------------------------------------------------------
Pair    | 0.0017076  | 0.0025918  | 0.003722   |   0.8 |  9.75
Neigh   | 0.0010132  | 0.0015408  | 0.0019957  |   0.5 |  5.79
Comm    | 0.0090583  | 0.0099462  | 0.011249   |   0.5 | 37.40
Output  | 7.7525e-05 | 8.4367e-05 | 0.00010296 |   0.0 |  0.32
Modify  | 0          | 0          | 0          |   0.0 |  0.00
Other   |            | 0.01243    |            |       | 46.74

Nlocal:        12.4219 ave          15 max           9 min
Histogram: 1 3 0 11 0 17 19 0 11 2
Nghost:        579.656 ave         611 max         547 min
Histogram: 1 5 5 9 9 13 9 7 4 2
Neighs:        790.734 ave         969 max         597 min
Histogram: 3 2 10 1 15 7 13 5 7 1

Total # of neighbors = 50607
Ave neighs/atom = 63.656604
Neighbor list builds = 37
Dangerous builds = 0
#timestep 0.25
fix 1 all nvt temp 700.0 700.0 $(100.0*dt) ### MODIFY INITIAL TEMP, FINAL TEMP ###
fix 1 all nvt temp 700.0 700.0 25 
run 400000
Generated 0 of 0 mixed pair_coeff terms from geometric mixing rule
Per MPI rank memory allocation (min/avg/max) = 4.346 | 4.347 | 4.347 Mbytes
   Step          Temp          Press          Volume           Lx          Density         PotEng         TotEng    
       100   923            47390520       6724.9433      48.731617      2.3577398      1146833.4      1149017.9    
       200   15952.388      10407418       6724.9433      48.731617      2.3577398      239842.11      277597.63    
       300   4240.9697      8196231.5      6724.9433      48.731617      2.3577398      190680.6       200717.97    
       400   2221.4445      7578283.9      6724.9433      48.731617      2.3577398      176457.99      181715.62    
       500   1619.1497      7247259.2      6724.9433      48.731617      2.3577398      168661.77      172493.91    
       600   919.03184      7093356.3      6724.9433      48.731617      2.3577398      165199.68      167374.81    
       700   665.88477      7022794.4      6724.9433      48.731617      2.3577398      163582.97      165158.96    
       800   621.93139      6982338.8      6724.9433      48.731617      2.3577398      162618.67      164090.63    
       900   602.64992      6962394.7      6724.9433      48.731617      2.3577398      162141.98      163568.31    
      1000   625.35103      6953483.1      6724.9433      48.731617      2.3577398      161917.19      163397.24    
      1100   776.90487      6940039.1      6724.9433      48.731617      2.3577398      161531.81      163370.56    
      1200   736.98172      6929708.4      6724.9433      48.731617      2.3577398      161294.96      163039.23    
      1300   623.7081       6923115.5      6724.9433      48.731617      2.3577398      161178.83      162655       
      1400   661.36144      6916727.4      6724.9433      48.731617      2.3577398      161008.86      162574.15    
      1500   721.23309      6917449.1      6724.9433      48.731617      2.3577398      161003.13      162710.11    
      1600   794.29326      6912791.7      6724.9433      48.731617      2.3577398      160861.36      162741.26    
      1700   799.3761       6897566.6      6724.9433      48.731617      2.3577398      160491.58      162383.51    
      1800   672.1669       6883454.5      6724.9433      48.731617      2.3577398      160198.28      161789.14    
      1900   687.04626      6863492.7      6724.9433      48.731617      2.3577398      159707.25      161333.33    
      2000   608.73057      6859290.3      6724.9433      48.731617      2.3577398      159637.49      161078.21    
      2100   635.18759      6862508.7      6724.9433      48.731617      2.3577398      159703.21      161206.55    
      2200   757.06824      6870150.3      6724.9433      48.731617      2.3577398      159841.75      161633.55    
      2300   849.16868      6876389.4      6724.9433      48.731617      2.3577398      159958.82      161968.6     
      2400   797.38962      6867675.7      6724.9433      48.731617      2.3577398      159768.39      161655.62    
      2500   680.66534      6845921.5      6724.9433      48.731617      2.3577398      159287.08      160898.06    
      2600   722.84828      6818598.8      6724.9433      48.731617      2.3577398      158606.29      160317.1     
      2700   622.76461      6807051.1      6724.9433      48.731617      2.3577398      158365.53      159839.47    
      2800   702.50774      6791761.1      6724.9433      48.731617      2.3577398      157963.75      159626.42    
      2900   759.2173       6773016.1      6724.9433      48.731617      2.3577398      157488.84      159285.73    
      3000   683.86736      6753916.3      6724.9433      48.731617      2.3577398      157055.53      158674.08    
      3100   601.25695      6742338.5      6724.9433      48.731617      2.3577398      156807.05      158230.08    
      3200   624.79346      6737845.3      6724.9433      48.731617      2.3577398      156687.88      158166.62    
      3300   665.76383      6745766.5      6724.9433      48.731617      2.3577398      156866.8       158442.51    
      3400   814.30359      6750091.6      6724.9433      48.731617      2.3577398      156911.91      158839.18    
      3500   814.05453      6749218.5      6724.9433      48.731617      2.3577398      156890.31      158816.98    
      3600   751.39638      6733438.7      6724.9433      48.731617      2.3577398      156531.29      158309.67    
      3700   636.53707      6720167.2      6724.9433      48.731617      2.3577398      156253.3       157759.83    
      3800   582.6439       6716417.1      6724.9433      48.731617      2.3577398      156183.3       157562.28    
      3900   688.29184      6718155.8      6724.9433      48.731617      2.3577398      156185.91      157814.93    
      4000   812.9187       6723283.4      6724.9433      48.731617      2.3577398      156260.61      158184.59    
      4100   799.45637      6720663.8      6724.9433      48.731617      2.3577398      156203.05      158095.18    
      4200   689.35133      6710816.6      6724.9433      48.731617      2.3577398      156008.1       157639.63    
      4300   620.64213      6700683.3      6724.9433      48.731617      2.3577398      155787.2       157256.11    
      4400   598.26412      6700584.9      6724.9433      48.731617      2.3577398      155793.51      157209.46    
      4500   652.99547      6708740.7      6724.9433      48.731617      2.3577398      155970.06      157515.54    
      4600   783.97809      6716113.4      6724.9433      48.731617      2.3577398      156099.76      157955.25    
      4700   801.19577      6716212.4      6724.9433      48.731617      2.3577398      156094.66      157990.9     
      4800   769.19152      6702132.9      6724.9433      48.731617      2.3577398      155766.08      157586.57    
      4900   655.32119      6688734        6724.9433      48.731617      2.3577398      155485.32      157036.31    
      5000   560.50035      6684121.8      6724.9433      48.731617      2.3577398      155411.74      156738.32    
      5100   631.78925      6684402.6      6724.9433      48.731617      2.3577398      155390.88      156886.18    
      5200   750.05104      6693221.6      6724.9433      48.731617      2.3577398      155558.5       157333.69    
      5300   804.08427      6702535.2      6724.9433      48.731617      2.3577398      155762.73      157665.81    
      5400   712.37462      6702619.2      6724.9433      48.731617      2.3577398      155799.92      157485.94    
      5500   662.83238      6689150.5      6724.9433      48.731617      2.3577398      155493.71      157062.47    
      5600   610.22113      6681986.9      6724.9433      48.731617      2.3577398      155339.43      156783.68    
      5700   648.76425      6680894        6724.9433      48.731617      2.3577398      155299.36      156834.83    
      5800   702.65887      6688474        6724.9433      48.731617      2.3577398      155461         157124.02    
      5900   774.41842      6696541.4      6724.9433      48.731617      2.3577398      155627.96      157460.83    
      6000   784.88181      6698660.4      6724.9433      48.731617      2.3577398      155676.3       157533.93    
      6100   756.25351      6689880        6724.9433      48.731617      2.3577398      155474.86      157264.73    
      6200   608.40062      6687772.2      6724.9433      48.731617      2.3577398      155480.07      156920.01    
      6300   627.36435      6681907.6      6724.9433      48.731617      2.3577398      155331.81      156816.63    
      6400   669.39649      6686059.4      6724.9433      48.731617      2.3577398      155415.29      156999.6     
      6500   741.94583      6693407.9      6724.9433      48.731617      2.3577398      155565.33      157321.34    
      6600   758.45665      6697758.6      6724.9433      48.731617      2.3577398      155665.34      157460.43    
      6700   702.5383       6695756.5      6724.9433      48.731617      2.3577398      155638.7       157301.44    
      6800   684.63588      6687234.6      6724.9433      48.731617      2.3577398      155438.14      157058.51    
      6900   629.62592      6685517        6724.9433      48.731617      2.3577398      155418.79      156908.97    
      7000   642.11486      6688233.5      6724.9433      48.731617      2.3577398      155480.25      156999.99    
      7100   749.96663      6689646.4      6724.9433      48.731617      2.3577398      155472.14      157247.13    
      7200   771.76234      6693003.4      6724.9433      48.731617      2.3577398      155544.91      157371.48    
      7300   736.89153      6690344.7      6724.9433      48.731617      2.3577398      155492.59      157236.64    
      7400   649.36483      6689271.4      6724.9433      48.731617      2.3577398      155502.45      157039.35    
      7500   653.42816      6687260.7      6724.9433      48.731617      2.3577398      155450.98      156997.49    
      7600   677.30945      6690585.4      6724.9433      48.731617      2.3577398      155523.2       157126.23    
      7700   722.36758      6693767.3      6724.9433      48.731617      2.3577398      155581.21      157290.88    
      7800   746.91651      6692736        6724.9433      48.731617      2.3577398      155546.82      157314.6     
      7900   700.54644      6689914.9      6724.9433      48.731617      2.3577398      155497.49      157155.52    
      8000   644.01864      6687368.4      6724.9433      48.731617      2.3577398      155457.29      156981.53    
      8100   648.60404      6686667.3      6724.9433      48.731617      2.3577398      155440.73      156975.82    
      8200   692.09401      6691771.2      6724.9433      48.731617      2.3577398      155545.58      157183.61    
      8300   761.21718      6696080.3      6724.9433      48.731617      2.3577398      155623.84      157425.46    
      8400   765.54038      6695019.2      6724.9433      48.731617      2.3577398      155595.92      157407.77    
      8500   693.19552      6688367.5      6724.9433      48.731617      2.3577398      155462.87      157103.5     
      8600   612.89337      6684172.9      6724.9433      48.731617      2.3577398      155391.15      156841.72    
      8700   631.75367      6683167.4      6724.9433      48.731617      2.3577398      155360.88      156856.09    
      8800   699.86122      6689351.5      6724.9433      48.731617      2.3577398      155484.28      157140.69    
      8900   728.61792      6701555.6      6724.9433      48.731617      2.3577398      155768.3       157492.76    
      9000   766.63664      6701011.5      6724.9433      48.731617      2.3577398      155739.88      157554.33    
      9100   682.51724      6693793.6      6724.9433      48.731617      2.3577398      155598.92      157214.27    
      9200   630.61424      6682862.5      6724.9433      48.731617      2.3577398      155352.77      156845.29    
      9300   589.48263      6681553.7      6724.9433      48.731617      2.3577398      155338.55      156733.72    
      9400   651.62478      6687369.9      6724.9433      48.731617      2.3577398      155454.64      156996.88    
      9500   755.53484      6697845.5      6724.9433      48.731617      2.3577398      155669.18      157457.35    
      9600   786.55983      6703502.6      6724.9433      48.731617      2.3577398      155793.68      157655.28    
      9700   738.35737      6695673.6      6724.9433      48.731617      2.3577398      155623.71      157371.22    
      9800   653.62151      6684061.1      6724.9433      48.731617      2.3577398      155374.46      156921.43    
      9900   606.09756      6678989.2      6724.9433      48.731617      2.3577398      155269.3       156703.79    
     10000   647.06397      6681763.1      6724.9433      48.731617      2.3577398      155320.27      156851.71    
     10100   722.89237      6691881.7      6724.9433      48.731617      2.3577398      155536.84      157247.76    
     10200   812.83774      6697797.2      6724.9433      48.731617      2.3577398      155646.95      157570.75    
     10300   785.4287       6695444.8      6724.9433      48.731617      2.3577398      155598.08      157457       
     10400   689.49625      6687380.2      6724.9433      48.731617      2.3577398      155441.38      157073.26    
     10500   627.39898      6681372.8      6724.9433      48.731617      2.3577398      155320.28      156805.18    
     10600   630.96357      6682788.9      6724.9433      48.731617      2.3577398      155352.36      156845.7     
     10700   714.34646      6688374.8      6724.9433      48.731617      2.3577398      155455.32      157146.01    
     10800   765.88093      6695654.6      6724.9433      48.731617      2.3577398      155612.42      157425.08    
     10900   765.7952       6695597.3      6724.9433      48.731617      2.3577398      155610.66      157423.11    
     11000   717.23784      6689149.5      6724.9433      48.731617      2.3577398      155474.5       157172.04    
     11100   669.97809      6683514        6724.9433      48.731617      2.3577398      155354.36      156940.03    
     11200   641.27915      6683968.9      6724.9433      48.731617      2.3577398      155377.52      156895.27    
     11300   700.50402      6686276.5      6724.9433      48.731617      2.3577398      155410.47      157068.39    
     11400   736.17742      6692682.2      6724.9433      48.731617      2.3577398      155549.64      157291.99    
     11500   743.4493       6694696.9      6724.9433      48.731617      2.3577398      155597.66      157357.22    
     11600   704.05279      6692248.6      6724.9433      48.731617      2.3577398      155553.2       157219.52    
     11700   671.27554      6687242.8      6724.9433      48.731617      2.3577398      155445.13      157033.88    
     11800   637.38864      6686512        6724.9433      48.731617      2.3577398      155440.45      156949       
     11900   687.63205      6686027.6      6724.9433      48.731617      2.3577398      155409.02      157036.48    
     12000   713.93413      6689452.8      6724.9433      48.731617      2.3577398      155481.48      157171.19    
     12100   745.22675      6690102.7      6724.9433      48.731617      2.3577398      155485.01      157248.79    
     12200   710.85352      6690271.4      6724.9433      48.731617      2.3577398      155502.64      157185.06    
     12300   699.7425       6686385.3      6724.9433      48.731617      2.3577398      155412.55      157068.68    
     12400   661.28703      6687918        6724.9433      48.731617      2.3577398      155465.7       157030.81    
     12500   695.09211      6687505.5      6724.9433      48.731617      2.3577398      155442.83      157087.95    
     12600   724.8293       6687476.9      6724.9433      48.731617      2.3577398      155430.07      157145.57    
     12700   677.00228      6691388        6724.9433      48.731617      2.3577398      155542.27      157144.57    
     12800   706.9419       6688214.7      6724.9433      48.731617      2.3577398      155453.85      157127.01    
     12900   703.68593      6687555        6724.9433      48.731617      2.3577398      155439.4       157104.86    
     13000   679.07318      6688557        6724.9433      48.731617      2.3577398      155474.95      157082.15    
     13100   690.7234       6688750.3      6724.9433      48.731617      2.3577398      155473.67      157108.45    
     13200   713.23862      6689131.4      6724.9433      48.731617      2.3577398      155473.9       157161.96    
     13300   697.07467      6689534.5      6724.9433      48.731617      2.3577398      155489.16      157138.97    
     13400   698.38428      6686828.6      6724.9433      48.731617      2.3577398      155423.49      157076.4     
     13500   689.71744      6686309.3      6724.9433      48.731617      2.3577398      155415.14      157047.54    
     13600   688.19027      6688424.7      6724.9433      48.731617      2.3577398      155466.01      157094.79    
     13700   694.08889      6691088.5      6724.9433      48.731617      2.3577398      155529.29      157172.04    
     13800   720.66118      6689433.1      6724.9433      48.731617      2.3577398      155479.74      157185.38    
     13900   704.76974      6688171.1      6724.9433      48.731617      2.3577398      155455.57      157123.59    
     14000   716.32271      6684489.2      6724.9433      48.731617      2.3577398      155360.25      157055.61    
     14100   653.15124      6688621.6      6724.9433      48.731617      2.3577398      155486.07      157031.92    
     14200   699.1082       6687473        6724.9433      48.731617      2.3577398      155440.02      157094.64    
     14300   726.83346      6689163.7      6724.9433      48.731617      2.3577398      155471.05      157191.29    
     14400   748.26927      6689001.7      6724.9433      48.731617      2.3577398      155456.58      157227.56    
     14500   721.01046      6687329.9      6724.9433      48.731617      2.3577398      155426.83      157133.29    
     14600   654.98641      6686951.6      6724.9433      48.731617      2.3577398      155443.91      156994.1     
     14700   650.34599      6686051.2      6724.9433      48.731617      2.3577398      155423.37      156962.58    
     14800   656.3727       6688529.8      6724.9433      48.731617      2.3577398      155482.92      157036.39    
     14900   718.43465      6689575.8      6724.9433      48.731617      2.3577398      155482.41      157182.77    
     15000   736.29551      6691343.4      6724.9433      48.731617      2.3577398      155518.59      157261.23    
     15100   710.46697      6690302.3      6724.9433      48.731617      2.3577398      155504.26      157185.77    
     15200   684.20665      6686173.4      6724.9433      48.731617      2.3577398      155413.54      157032.89    
     15300   660.63836      6684188.8      6724.9433      48.731617      2.3577398      155375.21      156938.78    
     15400   678.79126      6685081.5      6724.9433      48.731617      2.3577398      155388.83      156995.37    
     15500   741.81731      6686103.4      6724.9433      48.731617      2.3577398      155390.65      157146.36    
     15600   733.50758      6691195.8      6724.9433      48.731617      2.3577398      155517.58      157253.61    
     15700   727.98199      6690167.3      6724.9433      48.731617      2.3577398      155491.84      157214.8     
     15800   708.41304      6685639.3      6724.9433      48.731617      2.3577398      155392.54      157069.19    
     15900   668.31275      6684359.5      6724.9433      48.731617      2.3577398      155376.71      156958.45    
     16000   668.99948      6685067.5      6724.9433      48.731617      2.3577398      155394.21      156977.57    
     16100   690.24542      6688728.6      6724.9433      48.731617      2.3577398      155474.22      157107.87    
     16200   729.23192      6690356.4      6724.9433      48.731617      2.3577398      155498.28      157224.19    
     16300   738.14015      6689602.3      6724.9433      48.731617      2.3577398      155475.82      157222.83    
     16400   683.33236      6688752        6724.9433      48.731617      2.3577398      155476.22      157093.5     
     16500   671.15628      6685441.6      6724.9433      48.731617      2.3577398      155400.45      156988.91    
     16600   669.15025      6685403.4      6724.9433      48.731617      2.3577398      155401.87      156985.59    
     16700   712.84963      6686179.1      6724.9433      48.731617      2.3577398      155403.58      157090.72    
     16800   732.36607      6689195.3      6724.9433      48.731617      2.3577398      155468.77      157202.11    
     16900   698.10714      6692180.2      6724.9433      48.731617      2.3577398      155554.53      157206.78    
     17000   696.68019      6688201.9      6724.9433      48.731617      2.3577398      155458.73      157107.61    
     17100   668.08516      6686392.4      6724.9433      48.731617      2.3577398      155424.9       157006.1     
     17200   670.63445      6686018.7      6724.9433      48.731617      2.3577398      155414.6       157001.84    
     17300   688.07348      6688237        6724.9433      48.731617      2.3577398      155462.3       157090.81    
     17400   730.03091      6688188.7      6724.9433      48.731617      2.3577398      155444.4       157172.21    
     17500   731.05662      6688612        6724.9433      48.731617      2.3577398      155455.26      157185.5     
     17600   701.79265      6687668.9      6724.9433      48.731617      2.3577398      155443.98      157104.96    
     17700   660.93137      6687712.7      6724.9433      48.731617      2.3577398      155461.02      157025.29    
     17800   669.26204      6687042.2      6724.9433      48.731617      2.3577398      155440.93      157024.92    
     17900   725.41479      6685867        6724.9433      48.731617      2.3577398      155390.54      157107.43    
     18000   713.40661      6689854.7      6724.9433      48.731617      2.3577398      155492.12      157180.58    
     18100   727.9731       6688268.2      6724.9433      48.731617      2.3577398      155448.43      157171.37    
     18200   685.60206      6688328        6724.9433      48.731617      2.3577398      155464.96      157087.62    
     18300   665.19095      6687092.4      6724.9433      48.731617      2.3577398      155444.19      157018.54    
     18400   666.48083      6687226.7      6724.9433      48.731617      2.3577398      155446.67      157024.07    
     18500   715.70456      6686711        6724.9433      48.731617      2.3577398      155415.36      157109.27    
     18600   720.27589      6689835.7      6724.9433      48.731617      2.3577398      155488.76      157193.48    
     18700   714.2556       6689785.1      6724.9433      48.731617      2.3577398      155490.59      157181.06    
     18800   712.04548      6686112.1      6724.9433      48.731617      2.3577398      155401.73      157086.98    
     18900   695.86542      6683697.7      6724.9433      48.731617      2.3577398      155350.6       156997.55    
     19000   650.84614      6687414.1      6724.9433      48.731617      2.3577398      155457.29      156997.69    
     19100   690.79137      6688536.2      6724.9433      48.731617      2.3577398      155469.42      157104.36    
     19200   716.81069      6690866        6724.9433      48.731617      2.3577398      155515.95      157212.47    
     19300   734.50756      6689980.6      6724.9433      48.731617      2.3577398      155487.3       157225.71    
     19400   714.17687      6687224        6724.9433      48.731617      2.3577398      155427.31      157117.59    
     19500   677.03932      6684985.9      6724.9433      48.731617      2.3577398      155387.6       156989.99    
     19600   656.3259       6685090.6      6724.9433      48.731617      2.3577398      155398.06      156951.43    
     19700   687.08031      6686319.2      6724.9433      48.731617      2.3577398      155416.04      157042.2     
     19800   731.61483      6688885.5      6724.9433      48.731617      2.3577398      155461.62      157193.18    
     19900   716.68949      6693288        6724.9433      48.731617      2.3577398      155574.6       157270.84    
     20000   721.08968      6689498        6724.9433      48.731617      2.3577398      155481.11      157187.76    
     20100   735.45723      6682462.8      6724.9433      48.731617      2.3577398      155304.35      157045       
     20200   656.24121      6684626.5      6724.9433      48.731617      2.3577398      155387.09      156940.26    
     20300   678.42387      6684344.1      6724.9433      48.731617      2.3577398      155372.89      156978.56    
     20400   705.61091      6687989.9      6724.9433      48.731617      2.3577398      155449.2       157119.22    
     20500   735.4895       6690532.2      6724.9433      48.731617      2.3577398      155500.71      157241.44    
     20600   718.5641       6692009.8      6724.9433      48.731617      2.3577398      155543.25      157243.92    
     20700   700.44595      6688499.3      6724.9433      48.731617      2.3577398      155463.38      157121.17    
     20800   672.42262      6685506.2      6724.9433      48.731617      2.3577398      155402.77      156994.24    
     20900   662.18892      6684906.2      6724.9433      48.731617      2.3577398      155391.94      156959.19    
     21000   703.79667      6685202.9      6724.9433      48.731617      2.3577398      155382.23      157047.95    
     21100   736.10517      6687538.6      6724.9433      48.731617      2.3577398      155426.88      157169.07    
     21200   731.98829      6690101.2      6724.9433      48.731617      2.3577398      155490.89      157223.34    
     21300   694.89259      6690781.1      6724.9433      48.731617      2.3577398      155521.89      157166.53    
     21400   680.96745      6687833.8      6724.9433      48.731617      2.3577398      155455.7       157067.39    
     21500   661.63104      6686549.9      6724.9433      48.731617      2.3577398      155432.7       156998.62    
     21600   674.43103      6686591.2      6724.9433      48.731617      2.3577398      155427.95      157024.17    
     21700   719.0208       6686500.8      6724.9433      48.731617      2.3577398      155406.99      157108.74    
     21800   732.8171       6688166.4      6724.9433      48.731617      2.3577398      155443.09      157177.5     
     21900   695.32722      6690943.3      6724.9433      48.731617      2.3577398      155524.75      157170.42    
     22000   712.89626      6686940.6      6724.9433      48.731617      2.3577398      155421.29      157108.55    
     22100   689.53354      6686295.4      6724.9433      48.731617      2.3577398      155415.37      157047.33    
     22200   668.81292      6687432.6      6724.9433      48.731617      2.3577398      155451.96      157034.88    
     22300   675.21973      6688574.8      6724.9433      48.731617      2.3577398      155476.56      157074.65    
     22400   710.94333      6687798.6      6724.9433      48.731617      2.3577398      155443.79      157126.43    
     22500   700.98053      6689637.4      6724.9433      48.731617      2.3577398      155491.6       157150.66    
     22600   707.81203      6688349.1      6724.9433      48.731617      2.3577398      155457.78      157133.01    
     22700   688.96074      6688202.1      6724.9433      48.731617      2.3577398      155461.49      157092.1     
     22800   692.97113      6686759.1      6724.9433      48.731617      2.3577398      155425.23      157065.33    
     22900   697.13167      6686362.3      6724.9433      48.731617      2.3577398      155413.82      157063.77    
     23000   691.5311       6687931.8      6724.9433      48.731617      2.3577398      155453.92      157090.61    
     23100   700.52533      6688288.8      6724.9433      48.731617      2.3577398      155459.71      157117.69    
     23200   696.86337      6689254.3      6724.9433      48.731617      2.3577398      155483.24      157132.55    
     23300   705.9395       6688265.3      6724.9433      48.731617      2.3577398      155456.45      157127.24    
     23400   688.59277      6688798.6      6724.9433      48.731617      2.3577398      155476.2       157105.93    
     23500   696.01268      6687000.5      6724.9433      48.731617      2.3577398      155430.36      157077.66    
     23600   695.97848      6686222.8      6724.9433      48.731617      2.3577398      155409.43      157056.64    
     23700   682.96175      6688000.2      6724.9433      48.731617      2.3577398      155459.49      157075.89    
     23800   716.37804      6687018.1      6724.9433      48.731617      2.3577398      155422.42      157117.92    
     23900   709.35015      6688758.2      6724.9433      48.731617      2.3577398      155467.01      157145.87    
     24000   674.2714       6691218        6724.9433      48.731617      2.3577398      155539.77      157135.61    
     24100   696.41621      6687942.4      6724.9433      48.731617      2.3577398      155452.56      157100.81    
     24200   679.84314      6687338.6      6724.9433      48.731617      2.3577398      155444.63      157053.66    
     24300   675.37391      6687248.2      6724.9433      48.731617      2.3577398      155443.06      157041.51    
     24400   684.3228       6688125.8      6724.9433      48.731617      2.3577398      155460.73      157080.36    
     24500   695.75042      6689890.1      6724.9433      48.731617      2.3577398      155500.25      157146.93    
     24600   724.12636      6688418        6724.9433      48.731617      2.3577398      155452.81      157166.64    
     24700   714.79993      6687542.5      6724.9433      48.731617      2.3577398      155435.39      157127.15    
     24800   704.59144      6685504.6      6724.9433      48.731617      2.3577398      155389.52      157057.12    
     24900   689.26961      6685444.5      6724.9433      48.731617      2.3577398      155394.62      157025.96    
     25000   706.44167      6685747        6724.9433      48.731617      2.3577398      155395.12      157067.1     
     25100   724.85942      6686966.6      6724.9433      48.731617      2.3577398      155417.59      157133.16    
     25200   701.29052      6690672.5      6724.9433      48.731617      2.3577398      155516.63      157176.42    
     25300   695.50188      6689920.3      6724.9433      48.731617      2.3577398      155500.98      157147.07    
     25400   695.62915      6686849.3      6724.9433      48.731617      2.3577398      155424.02      157070.41    
     25500   685.16013      6685487.6      6724.9433      48.731617      2.3577398      155397.31      157018.92    
     25600   667.44893      6687779.2      6724.9433      48.731617      2.3577398      155460.34      157040.04    
     25700   697.10218      6688954.6      6724.9433      48.731617      2.3577398      155477.07      157126.95    
     25800   722.85416      6689190.1      6724.9433      48.731617      2.3577398      155472.14      157182.97    
     25900   706.14214      6689807        6724.9433      48.731617      2.3577398      155493.33      157164.6     
     26000   702.23653      6686542.4      6724.9433      48.731617      2.3577398      155415.98      157078.01    
     26100   700.94137      6684120.5      6724.9433      48.731617      2.3577398      155357.24      157016.2     
     26200   691.70354      6685561.6      6724.9433      48.731617      2.3577398      155396.58      157033.68    
     26300   723.27393      6686556.3      6724.9433      48.731617      2.3577398      155409.05      157120.86    
     26400   715.27506      6690043        6724.9433      48.731617      2.3577398      155497.57      157190.46    
     26500   691.22747      6691076.2      6724.9433      48.731617      2.3577398      155530.55      157166.52    
     26600   701.73636      6686836.8      6724.9433      48.731617      2.3577398      155424.55      157085.4     
     26700   660.76557      6686944.6      6724.9433      48.731617      2.3577398      155440.38      157004.26    
     26800   699.15437      6684354        6724.9433      48.731617      2.3577398      155363.71      157018.45    
     26900   700.22473      6688149.6      6724.9433      48.731617      2.3577398      155455.26      157112.53    
     27000   722.49556      6689770.8      6724.9433      48.731617      2.3577398      155487.17      157197.15    
     27100   729.59693      6689037.6      6724.9433      48.731617      2.3577398      155466.7       157193.49    
     27200   706.48437      6686677.2      6724.9433      48.731617      2.3577398      155417.83      157089.91    
     27300   688.7939       6684248.1      6724.9433      48.731617      2.3577398      155365.35      156995.56    
     27400   679.1711       6685119.8      6724.9433      48.731617      2.3577398      155390.46      156997.9     
     27500   714.56092      6686395.5      6724.9433      48.731617      2.3577398      155407.15      157098.35    
     27600   731.14484      6689851.5      6724.9433      48.731617      2.3577398      155484.24      157214.69    
     27700   721.74105      6690768.5      6724.9433      48.731617      2.3577398      155510.03      157218.22    
     27800   708.59388      6687428.5      6724.9433      48.731617      2.3577398      155434.93      157112.01    
     27900   661.37776      6685797.5      6724.9433      48.731617      2.3577398      155414.25      156979.57    
     28000   661.74679      6685116.6      6724.9433      48.731617      2.3577398      155397.38      156963.58    
     28100   696.39257      6686739        6724.9433      48.731617      2.3577398      155423.46      157071.65    
     28200   713.53728      6691485.5      6724.9433      48.731617      2.3577398      155531.41      157220.18    
     28300   725.62936      6692112.6      6724.9433      48.731617      2.3577398      155540.38      157257.77    
     28400   709.32123      6688658.5      6724.9433      48.731617      2.3577398      155462.9       157141.7     
     28500   672.4346       6685288.6      6724.9433      48.731617      2.3577398      155397.37      156988.86    
     28600   671.97916      6682831.2      6724.9433      48.731617      2.3577398      155337.36      156927.77    
     28700   674.82016      6686514.8      6724.9433      48.731617      2.3577398      155425.73      157022.87    
     28800   717.6917       6690099.8      6724.9433      48.731617      2.3577398      155497.19      157195.8     
     28900   719.40827      6693940.2      6724.9433      48.731617      2.3577398      155588.76      157291.43    
     29000   743.623        6688434.9      6724.9433      48.731617      2.3577398      155446.07      157206.05    
     29100   695.18188      6684702.1      6724.9433      48.731617      2.3577398      155373.21      157018.54    
     29200   653.20624      6683576.4      6724.9433      48.731617      2.3577398      155362.31      156908.3     
     29300   675.33779      6684026.1      6724.9433      48.731617      2.3577398      155365.88      156964.25    
     29400   688.59676      6690538.7      6724.9433      48.731617      2.3577398      155518.21      157147.96    
     29500   741.92934      6692440.7      6724.9433      48.731617      2.3577398      155543.65      157299.62    
     29600   738.76915      6691393.1      6724.9433      48.731617      2.3577398      155518.6       157267.09    
     29700   736.8128       6683991.6      6724.9433      48.731617      2.3577398      155340.77      157084.63    
     29800   673.46286      6682036.6      6724.9433      48.731617      2.3577398      155318.28      156912.21    
     29900   669.72006      6682393.1      6724.9433      48.731617      2.3577398      155326.72      156911.79    
     30000   693.45685      6687233.5      6724.9433      48.731617      2.3577398      155435.77      157077.02    
     30100   754.60183      6690344        6724.9433      48.731617      2.3577398      155488.37      157274.34    
     30200   724.96241      6694125.2      6724.9433      48.731617      2.3577398      155590.88      157306.69    
     30300   717.48451      6688111.5      6724.9433      48.731617      2.3577398      155448.93      157147.05    
     30400   673.28902      6683828.2      6724.9433      48.731617      2.3577398      155362.01      156955.52    
     30500   652.79489      6683064.5      6724.9433      48.731617      2.3577398      155351.02      156896.03    
     30600   665.06687      6686735.7      6724.9433      48.731617      2.3577398      155434.8       157008.85    
     30700   727.33553      6690033.1      6724.9433      48.731617      2.3577398      155490.99      157212.42    
     30800   748.28828      6693108.4      6724.9433      48.731617      2.3577398      155557         157328.02    
     30900   739.89878      6689177.6      6724.9433      48.731617      2.3577398      155465.91      157217.08    
     31000   666.56628      6686397.5      6724.9433      48.731617      2.3577398      155425.94      157003.55    
     31100   664.97982      6681904.9      6724.9433      48.731617      2.3577398      155319.16      156893.01    
     31200   686.82772      6682986.9      6724.9433      48.731617      2.3577398      155335.04      156960.6     
     31300   716.43582      6688410.1      6724.9433      48.731617      2.3577398      155455.91      157151.55    
     31400   757.44281      6691376.6      6724.9433      48.731617      2.3577398      155511.38      157304.07    
     31500   720.91455      6692467.9      6724.9433      48.731617      2.3577398      155552.1       157258.33    
     31600   709.74053      6685835        6724.9433      48.731617      2.3577398      155396.56      157076.35    
     31700   652.12674      6684547.1      6724.9433      48.731617      2.3577398      155387.65      156931.08    
     31800   647.91416      6685043.8      6724.9433      48.731617      2.3577398      155401.01      156934.47    
     31900   698.77524      6687222.2      6724.9433      48.731617      2.3577398      155434.66      157088.49    
     32000   734.29281      6691152.1      6724.9433      48.731617      2.3577398      155515.69      157253.59    
     32100   744.99701      6690938.4      6724.9433      48.731617      2.3577398      155506.66      157269.89    
     32200   684.67601      6690082.4      6724.9433      48.731617      2.3577398      155508.23      157128.7     
     32300   691.82893      6682942.2      6724.9433      48.731617      2.3577398      155332.46      156969.85    
     32400   665.69041      6683403.6      6724.9433      48.731617      2.3577398      155354.46      156929.99    
     32500   688.93718      6686023.9      6724.9433      48.731617      2.3577398      155407.49      157038.04    
     32600   717.07335      6690722.3      6724.9433      48.731617      2.3577398      155511.62      157208.77    
     32700   743.1151       6691535        6724.9433      48.731617      2.3577398      155521.89      157280.66    
     32800   716.06921      6689242.3      6724.9433      48.731617      2.3577398      155477.69      157172.46    
     32900   695.04237      6684376.3      6724.9433      48.731617      2.3577398      155366.38      157011.38    
     33000   660.71949      6683764.1      6724.9433      48.731617      2.3577398      155365.29      156929.06    
     33100   671.15928      6685729.4      6724.9433      48.731617      2.3577398      155408.92      156997.39    
     33200   702.30117      6690155.3      6724.9433      48.731617      2.3577398      155502.43      157164.61    
     33300   712.40864      6693908        6724.9433      48.731617      2.3577398      155591.03      157277.13    
     33400   744.72723      6688802.7      6724.9433      48.731617      2.3577398      155454.58      157217.18    
     33500   681.75275      6687091.9      6724.9433      48.731617      2.3577398      155436.74      157050.29    
     33600   676.91302      6682901.2      6724.9433      48.731617      2.3577398      155336.54      156938.64    
     33700   658.72708      6685393.2      6724.9433      48.731617      2.3577398      155405.83      156964.88    
     33800   699.35318      6688309.8      6724.9433      48.731617      2.3577398      155460.22      157115.42    
     33900   754.01313      6689828.9      6724.9433      48.731617      2.3577398      155475.95      157260.53    
     34000   748.09032      6690007.6      6724.9433      48.731617      2.3577398      155482.86      157253.41    
     34100   672.98757      6689830.4      6724.9433      48.731617      2.3577398      155506.95      157099.75    
     34200   656.54679      6685131.8      6724.9433      48.731617      2.3577398      155399.19      156953.08    
     34300   668.06995      6683817.2      6724.9433      48.731617      2.3577398      155363.57      156944.73    
     34400   714.81677      6685358.7      6724.9433      48.731617      2.3577398      155381.41      157073.21    
     34500   729.93324      6690544.7      6724.9433      48.731617      2.3577398      155501.67      157229.25    
     34600   715.52409      6693226.6      6724.9433      48.731617      2.3577398      155573.5       157266.98    
     34700   709.41964      6688948.5      6724.9433      48.731617      2.3577398      155470.54      157149.57    
     34800   691.07295      6683681.4      6724.9433      48.731617      2.3577398      155350.73      156986.33    
     34900   670.16794      6683078.4      6724.9433      48.731617      2.3577398      155344.67      156930.79    
     35000   689.73846      6685340.6      6724.9433      48.731617      2.3577398      155390.71      157023.15    
     35100   727.27575      6689158.2      6724.9433      48.731617      2.3577398      155470.4       157191.69    
     35200   738.27705      6691798.8      6724.9433      48.731617      2.3577398      155529.54      157276.87    
     35300   724.67452      6689723.7      6724.9433      48.731617      2.3577398      155485.06      157200.19    
     35400   691.4964       6685285.3      6724.9433      48.731617      2.3577398      155389.85      157026.46    
     35500   662.46353      6683616.7      6724.9433      48.731617      2.3577398      155360.79      156928.68    
     35600   700.92537      6682567.6      6724.9433      48.731617      2.3577398      155319.11      156978.03    
     35700   717.17973      6688120        6724.9433      48.731617      2.3577398      155448.26      157145.66    
     35800   723.75154      6692691.8      6724.9433      48.731617      2.3577398      155556.61      157269.56    
     35900   724.63554      6691235.4      6724.9433      48.731617      2.3577398      155521.39      157236.43    
     36000   715.15566      6685440.9      6724.9433      48.731617      2.3577398      155383.98      157076.58    
     36100   667.73473      6683889.3      6724.9433      48.731617      2.3577398      155364.29      156944.66    
     36200   664.39745      6684517.7      6724.9433      48.731617      2.3577398      155380.94      156953.41    
     36300   688.90631      6688135.4      6724.9433      48.731617      2.3577398      155459.92      157090.39    
     36400   727.14628      6691421.1      6724.9433      48.731617      2.3577398      155524.29      157245.27    
     36500   718.14791      6692594.5      6724.9433      48.731617      2.3577398      155556.93      157256.62    
     36600   719.98518      6686962.2      6724.9433      48.731617      2.3577398      155418.57      157122.61    
     36700   691.92516      6683219.8      6724.9433      48.731617      2.3577398      155339.88      156977.5     
     36800   686.12372      6682343.4      6724.9433      48.731617      2.3577398      155320.31      156944.21    
     36900   677.72064      6687246.4      6724.9433      48.731617      2.3577398      155440.57      157044.58    
     37000   702.51539      6691460.3      6724.9433      48.731617      2.3577398      155535.33      157198.02    
     37100   750.36934      6690163.9      6724.9433      48.731617      2.3577398      155485.74      157261.69    
     37200   691.38095      6691313.6      6724.9433      48.731617      2.3577398      155536.88      157173.21    
     37300   701.63058      6684419.4      6724.9433      48.731617      2.3577398      155363.13      157023.72    
     37400   667.18585      6683864.7      6724.9433      48.731617      2.3577398      155363.95      156943.02    
     37500   688.47059      6684728.1      6724.9433      48.731617      2.3577398      155377.02      157006.47    
     37600   712.88114      6688776.2      6724.9433      48.731617      2.3577398      155465.74      157152.96    
     37700   740.26766      6690624.2      6724.9433      48.731617      2.3577398      155499.96      157252       
     37800   728.39747      6689449.5      6724.9433      48.731617      2.3577398      155476.13      157200.07    
     37900   681.23837      6687865.4      6724.9433      48.731617      2.3577398      155455.5       157067.83    
     38000   677.82429      6684303.4      6724.9433      48.731617      2.3577398      155370.93      156975.18    
     38100   680.67424      6684611.9      6724.9433      48.731617      2.3577398      155377.76      156988.75    
     38200   684.08478      6688932.6      6724.9433      48.731617      2.3577398      155480.76      157099.82    
     38300   707.99328      6691722.8      6724.9433      48.731617      2.3577398      155539.62      157215.27    
     38400   716.98073      6691572.7      6724.9433      48.731617      2.3577398      155531.96      157228.89    
     38500   689.44715      6689074.9      6724.9433      48.731617      2.3577398      155483.73      157115.49    
     38600   682.03124      6684922.4      6724.9433      48.731617      2.3577398      155382.9       156997.11    
     38700   651.34274      6686347.7      6724.9433      48.731617      2.3577398      155432.23      156973.81    
     38800   672.82081      6688380        6724.9433      48.731617      2.3577398      155471.63      157064.04    
     38900   711.93349      6689823.2      6724.9433      48.731617      2.3577398      155492.84      157177.82    
     39000   744.83361      6689139.1      6724.9433      48.731617      2.3577398      155461.72      157224.57    
     39100   709.75304      6689206.8      6724.9433      48.731617      2.3577398      155476.41      157156.22    
     39200   678.13393      6686974.3      6724.9433      48.731617      2.3577398      155435.55      157040.53    
     39300   704.45981      6682514.3      6724.9433      48.731617      2.3577398      155317.1       156984.38    
     39400   692.114        6685133.6      6724.9433      48.731617      2.3577398      155385.09      157023.16    
     39500   716.85784      6687743.9      6724.9433      48.731617      2.3577398      155439.71      157136.35    
     39600   739.596        6689460        6724.9433      48.731617      2.3577398      155472.07      157222.52    
     39700   700.30684      6691170.4      6724.9433      48.731617      2.3577398      155528.49      157185.95    
     39800   699.72831      6686679        6724.9433      48.731617      2.3577398      155419.34      157075.44    
     39900   671.81927      6685509.6      6724.9433      48.731617      2.3577398      155403.17      156993.21    
     40000   650.32618      6687805.9      6724.9433      48.731617      2.3577398      155467.66      157006.83    
     40100   682.81498      6689197        6724.9433      48.731617      2.3577398      155487.61      157103.67    
     40200   710.4985       6690742.9      6724.9433      48.731617      2.3577398      155513.81      157195.39    
     40300   707.2894       6690942.9      6724.9433      48.731617      2.3577398      155520.66      157194.65    
     40400   709.54661      6687434.5      6724.9433      48.731617      2.3577398      155433.8       157113.13    
     40500   685.90939      6685318.7      6724.9433      48.731617      2.3577398      155393         157016.39    
     40600   691.4903       6683881.1      6724.9433      48.731617      2.3577398      155356.39      156992.98    
     40700   703.84541      6686118.6      6724.9433      48.731617      2.3577398      155406.19      157072.03    
     40800   711.79704      6689750.8      6724.9433      48.731617      2.3577398      155489.47      157174.13    
     40900   704.05952      6691504.2      6724.9433      48.731617      2.3577398      155536.2       157202.55    
     41000   715.94649      6688170.4      6724.9433      48.731617      2.3577398      155448.96      157143.44    
     41100   685.3109       6686405.7      6724.9433      48.731617      2.3577398      155419.03      157041       
     41200   678.43841      6685225.6      6724.9433      48.731617      2.3577398      155392.92      156998.63    
     41300   688.84685      6686256.6      6724.9433      48.731617      2.3577398      155414.94      157045.28    
     41400   719.22843      6687684.6      6724.9433      48.731617      2.3577398      155437.19      157139.43    
     41500   723.02388      6689830.7      6724.9433      48.731617      2.3577398      155488.3       157199.53    
     41600   701.47077      6690166.3      6724.9433      48.731617      2.3577398      155503.27      157163.48    
     41700   717.34524      6685126.5      6724.9433      48.731617      2.3577398      155376.51      157074.29    
     41800   681.95255      6685439.4      6724.9433      48.731617      2.3577398      155396.69      157010.71    
     41900   690.76038      6685510.8      6724.9433      48.731617      2.3577398      155395.01      157029.87    
     42000   707.58374      6687228.8      6724.9433      48.731617      2.3577398      155430.14      157104.82    
     42100   712.86623      6689866.3      6724.9433      48.731617      2.3577398      155491.71      157178.89    
     42200   713.87402      6689726.5      6724.9433      48.731617      2.3577398      155488.83      157178.4     
     42300   707.03343      6687190.4      6724.9433      48.731617      2.3577398      155429.11      157102.49    
     42400   677.33786      6686846.3      6724.9433      48.731617      2.3577398      155433.73      157036.83    
     42500   677.7405       6686568.9      6724.9433      48.731617      2.3577398      155425.38      157029.43    
     42600   704.66113      6686772.4      6724.9433      48.731617      2.3577398      155418.69      157086.45    
     42700   725.75377      6687578.6      6724.9433      48.731617      2.3577398      155432.06      157149.75    
     42800   721.25851      6688549.9      6724.9433      48.731617      2.3577398      155457.78      157164.83    
     42900   702.79738      6688373.8      6724.9433      48.731617      2.3577398      155460.05      157123.41    
     43000   692.08342      6686843.1      6724.9433      48.731617      2.3577398      155427.3       157065.3     
     43100   708.85108      6684553        6724.9433      48.731617      2.3577398      155365.42      157043.1     
     43200   690.81318      6686887.2      6724.9433      48.731617      2.3577398      155429.19      157064.18    
     43300   718.7497       6686813.8      6724.9433      48.731617      2.3577398      155415.76      157116.87    
     43400   744.41075      6686318.6      6724.9433      48.731617      2.3577398      155394.39      157156.23    
     43500   697.55292      6689420.7      6724.9433      48.731617      2.3577398      155488.09      157139.03    
     43600   708.10744      6686871.4      6724.9433      48.731617      2.3577398      155420.84      157096.77    
     43700   684.81006      6687172.2      6724.9433      48.731617      2.3577398      155437.87      157058.65    
     43800   678.62654      6687520.8      6724.9433      48.731617      2.3577398      155448.08      157054.23    
     43900   685.78216      6688345.3      6724.9433      48.731617      2.3577398      155466.44      157089.53    
     44000   690.69884      6689709.3      6724.9433      48.731617      2.3577398      155498.08      157132.8     
     44100   705.13895      6689158.4      6724.9433      48.731617      2.3577398      155478.6       157147.5     
     44200   693.72597      6688896.4      6724.9433      48.731617      2.3577398      155476.42      157118.3     
     44300   688.83096      6687830.4      6724.9433      48.731617      2.3577398      155451.79      157082.09    
     44400   710.38366      6684887.2      6724.9433      48.731617      2.3577398      155372.87      157054.18    
     44500   677.36551      6687834.6      6724.9433      48.731617      2.3577398      155457.61      157060.77    
     44600   665.53419      6690646.8      6724.9433      48.731617      2.3577398      155530.14      157105.3     
     44700   691.11065      6690368.9      6724.9433      48.731617      2.3577398      155513.06      157148.76    
     44800   705.88807      6689409.6      6724.9433      48.731617      2.3577398      155484.29      157154.96    
     44900   679.46231      6689485.5      6724.9433      48.731617      2.3577398      155496.39      157104.52    
     45000   673.95033      6687825        6724.9433      48.731617      2.3577398      155457.89      157052.97    
     45100   705.67251      6684720.1      6724.9433      48.731617      2.3577398      155370.07      157040.23    
     45200   694.83474      6686783.9      6724.9433      48.731617      2.3577398      155424.98      157069.49    
     45300   716.10447      6687731.7      6724.9433      48.731617      2.3577398      155440.45      157135.3     
     45400   701.71205      6690409.2      6724.9433      48.731617      2.3577398      155509.64      157170.43    
     45500   703.94703      6689342.5      6724.9433      48.731617      2.3577398      155482.81      157148.89    
     45600   703.65355      6686385.7      6724.9433      48.731617      2.3577398      155411.45      157076.84    
     45700   667.74595      6686900.8      6724.9433      48.731617      2.3577398      155438.04      157018.44    
     45800   726.5527       6682935.4      6724.9433      48.731617      2.3577398      155320.22      157039.8     
     45900   693.83511      6688523.7      6724.9433      48.731617      2.3577398      155466.69      157108.83    
     46000   704.83452      6690545.1      6724.9433      48.731617      2.3577398      155511.29      157179.47    
     46100   743.17856      6687523.2      6724.9433      48.731617      2.3577398      155423.59      157182.52    
     46200   692.28672      6688471.6      6724.9433      48.731617      2.3577398      155466.55      157105.02    
     46300   690.84144      6685034.9      6724.9433      48.731617      2.3577398      155383.69      157018.75    
     46400   678.23716      6685224.5      6724.9433      48.731617      2.3577398      155393.51      156998.74    
     46500   696.69706      6686850.8      6724.9433      48.731617      2.3577398      155425.93      157074.85    
     46600   745.80585      6687375.9      6724.9433      48.731617      2.3577398      155420         157185.15    
     46700   707.7971       6691571.6      6724.9433      48.731617      2.3577398      155534.6       157209.79    
     46800   714.01031      6687984.7      6724.9433      48.731617      2.3577398      155447.14      157137.04    
     46900   694.16861      6685256.9      6724.9433      48.731617      2.3577398      155387.46      157030.39    
     47000   694.37823      6683216.8      6724.9433      48.731617      2.3577398      155338.46      156981.89    
     47100   687.54765      6685992.3      6724.9433      48.731617      2.3577398      155408.28      157035.54    
     47200   729.36242      6687650.9      6724.9433      48.731617      2.3577398      155432.16      157158.39    
     47300   726.65471      6691098.1      6724.9433      48.731617      2.3577398      155516.84      157236.66    
     47400   713.6516       6690039.9      6724.9433      48.731617      2.3577398      155496.33      157185.37    
     47500   687.68407      6686730.1      6724.9433      48.731617      2.3577398      155425.61      157053.19    
     47600   671.3759       6684408.8      6724.9433      48.731617      2.3577398      155376.76      156965.75    
     47700   706.45141      6682887.9      6724.9433      48.731617      2.3577398      155324.41      156996.41    
     47800   682.49233      6689944.1      6724.9433      48.731617      2.3577398      155506.44      157121.73    
     47900   745.46084      6689627.6      6724.9433      48.731617      2.3577398      155472.83      157237.16    
     48000   741.92532      6689300.1      6724.9433      48.731617      2.3577398      155467.66      157223.62    
     48100   708.94341      6686852.7      6724.9433      48.731617      2.3577398      155421.25      157099.15    
     48200   663.11868      6685197.9      6724.9433      48.731617      2.3577398      155398.76      156968.21    
     48300   663.24732      6685077.3      6724.9433      48.731617      2.3577398      155394.94      156964.69    
     48400   698.90861      6686688.1      6724.9433      48.731617      2.3577398      155421.19      157075.34    
     48500   710.91565      6691453.2      6724.9433      48.731617      2.3577398      155532.63      157215.2     
     48600   707.04299      6693144.7      6724.9433      48.731617      2.3577398      155574.26      157247.67    
     48700   695.24031      6689987.8      6724.9433      48.731617      2.3577398      155503.43      157148.9     
     48800   680.94409      6684920.1      6724.9433      48.731617      2.3577398      155385.51      156997.15    
     48900   658.80681      6684575.7      6724.9433      48.731617      2.3577398      155384.59      156943.83    
     49000   670.76186      6687075.8      6724.9433      48.731617      2.3577398      155441.48      157029.02    
     49100   716.56447      6689505.8      6724.9433      48.731617      2.3577398      155483.52      157179.46    
     49200   727.46837      6692025.1      6724.9433      48.731617      2.3577398      155538.96      157260.71    
     49300   703.78212      6690861.2      6724.9433      48.731617      2.3577398      155521.12      157186.8     
     49400   677.00612      6687119.6      6724.9433      48.731617      2.3577398      155439.6       157041.91    
     49500   672.91998      6683390.3      6724.9433      48.731617      2.3577398      155351.14      156943.78    
     49600   694.14757      6683317.5      6724.9433      48.731617      2.3577398      155341.68      156984.56    
     49700   698.59551      6689121.6      6724.9433      48.731617      2.3577398      155479.98      157133.39    
     49800   736.5143       6691246.8      6724.9433      48.731617      2.3577398      155516.62      157259.78    
     49900   739.84335      6689619.7      6724.9433      48.731617      2.3577398      155476.34      157227.38    
     50000   705.7767       6686401.2      6724.9433      48.731617      2.3577398      155410.62      157081.03    
     50100   653.89622      6685679.5      6724.9433      48.731617      2.3577398      155413.51      156961.13    
     50200   670.43814      6684446.7      6724.9433      48.731617      2.3577398      155378.21      156964.98    
     50300   709.35462      6685881.9      6724.9433      48.731617      2.3577398      155398.24      157077.11    
     50400   732.34675      6690059.9      6724.9433      48.731617      2.3577398      155490.51      157223.8     
     50500   716.64677      6692506.4      6724.9433      48.731617      2.3577398      155554.94      157251.07    
     50600   698.40889      6689239.1      6724.9433      48.731617      2.3577398      155481.82      157134.79    
     50700   720.66389      6681761.4      6724.9433      48.731617      2.3577398      155292.03      156997.67    
     50800   673.92069      6683669        6724.9433      48.731617      2.3577398      155356.56      156951.57    
     50900   678.56721      6686769.9      6724.9433      48.731617      2.3577398      155431.26      157037.27    
     51000   718.56415      6689251.6      6724.9433      48.731617      2.3577398      155476.95      157177.62    
     51100   708.13179      6693082.9      6724.9433      48.731617      2.3577398      155572.05      157248.03    
     51200   747.29061      6687223.8      6724.9433      48.731617      2.3577398      155415.31      157183.97    
     51300   702.0801       6685144        6724.9433      48.731617      2.3577398      155382.79      157044.44    
     51400   674.934        6683776.6      6724.9433      48.731617      2.3577398      155359.98      156957.39    
     51500   654.70841      6687025.5      6724.9433      48.731617      2.3577398      155446.24      156995.78    
     51600   718.44824      6687140.3      6724.9433      48.731617      2.3577398      155424.68      157125.08    
     51700   740.54676      6689998.1      6724.9433      48.731617      2.3577398      155484.79      157237.48    
     51800   739.90441      6689237.3      6724.9433      48.731617      2.3577398      155465.82      157217       
     51900   693.76255      6687856.2      6724.9433      48.731617      2.3577398      155452.27      157094.25    
     52000   676.96694      6685040.6      6724.9433      48.731617      2.3577398      155389.73      156991.95    
     52100   692.51967      6683406.7      6724.9433      48.731617      2.3577398      155343.11      156982.14    
     52200   689.32734      6687856        6724.9433      48.731617      2.3577398      155453         157084.47    
     52300   728.23204      6689029.8      6724.9433      48.731617      2.3577398      155466.43      157189.98    
     52400   725.76931      6690356.1      6724.9433      48.731617      2.3577398      155498.01      157215.73    
     52500   711.72143      6688069.3      6724.9433      48.731617      2.3577398      155449.66      157134.14    
     52600   657.68328      6687706.9      6724.9433      48.731617      2.3577398      155461.73      157018.31    
     52700   680.66894      6684532.3      6724.9433      48.731617      2.3577398      155374.99      156985.97    
     52800   680.6868       6687103.5      6724.9433      48.731617      2.3577398      155437.66      157048.69    
     52900   703.16759      6690045.5      6724.9433      48.731617      2.3577398      155500.56      157164.79    
     53000   733.0842       6689759.4      6724.9433      48.731617      2.3577398      155481.72      157216.75    
     53100   725.36588      6688199.1      6724.9433      48.731617      2.3577398      155445.75      157162.52    
     53200   664.89881      6688816.1      6724.9433      48.731617      2.3577398      155484.11      157057.77    
     53300   662.23396      6686076.8      6724.9433      48.731617      2.3577398      155419.45      156986.8     
     53400   733.10992      6678968.8      6724.9433      48.731617      2.3577398      155220.36      156955.46    
     53500   686.03475      6677557.7      6724.9433      48.731617      2.3577398      155204.52      156828.2     
     53600   688.082        6671236.8      6724.9433      48.731617      2.3577398      155051.14      156679.66    
     53700   646.3641       6670409.9      6724.9433      48.731617      2.3577398      155044.49      156574.28    
     53800   668.12992      6670303.3      6724.9433      48.731617      2.3577398      155036.05      156617.36    
     53900   720.40255      6672420.2      6724.9433      48.731617      2.3577398      155068.29      156773.31    
     54000   736.51136      6677181.9      6724.9433      48.731617      2.3577398      155175.78      156918.93    
     54100   725.03245      6677649        6724.9433      48.731617      2.3577398      155191.97      156907.95    
     54200   694.41952      6673462.9      6724.9433      48.731617      2.3577398      155103.43      156746.95    
     54300   670.77087      6668270.4      6724.9433      48.731617      2.3577398      154985.21      156572.77    
     54400   671.19284      6665889.7      6724.9433      48.731617      2.3577398      154927.52      156516.07    
     54500   669.68402      6670311.2      6724.9433      48.731617      2.3577398      155034.6       156619.58    
     54600   726.04203      6673095.3      6724.9433      48.731617      2.3577398      155080.14      156798.51    
     54700   751.24421      6675059.3      6724.9433      48.731617      2.3577398      155119.07      156897.09    
     54800   745.64115      6672619        6724.9433      48.731617      2.3577398      155060.74      156825.49    
     54900   672.82812      6670628.9      6724.9433      48.731617      2.3577398      155042.19      156634.62    
     55000   682.48795      6665970.3      6724.9433      48.731617      2.3577398      154923.52      156538.81    
     55100   652.01199      6670664.7      6724.9433      48.731617      2.3577398      155051.69      156594.85    
     55200   699.7967       6673841.6      6724.9433      48.731617      2.3577398      155108.36      156764.61    
     55300   713.58115      6676949.4      6724.9433      48.731617      2.3577398      155179.65      156868.53    
     55400   739.81489      6672579.5      6724.9433      48.731617      2.3577398      155063.16      156814.13    
     55500   698.17526      6670558.2      6724.9433      48.731617      2.3577398      155028.7       156681.12    
     55600   650.5096       6670596.5      6724.9433      48.731617      2.3577398      155049.45      156589.06    
     55700   683.88171      6668331.5      6724.9433      48.731617      2.3577398      154981.78      156600.36    
     55800   705.7018       6671759.7      6724.9433      48.731617      2.3577398      155055.92      156726.15    
     55900   730.33916      6674285.6      6724.9433      48.731617      2.3577398      155107.92      156836.46    
     56000   710.69011      6674299        6724.9433      48.731617      2.3577398      155116.5       156798.54    
     56100   696.21914      6670585.5      6724.9433      48.731617      2.3577398      155030.99      156678.78    
     56200   674.39791      6669419.1      6724.9433      48.731617      2.3577398      155011.79      156607.93    
     56300   697.3232       6668883.7      6724.9433      48.731617      2.3577398      154988.97      156639.36    
     56400   742.29122      6668981.2      6724.9433      48.731617      2.3577398      154973.29      156730.12    
     56500   709.3359       6673792.1      6724.9433      48.731617      2.3577398      155102.89      156781.72    
     56600   693.4596       6672975.1      6724.9433      48.731617      2.3577398      155091.09      156732.34    
     56700   701.59662      6668131.1      6724.9433      48.731617      2.3577398      154969.64      156630.15    
     56800   652.82676      6669955.3      6724.9433      48.731617      2.3577398      155033.78      156578.86    
     56900   677.84962      6670831.2      6724.9433      48.731617      2.3577398      155045.23      156649.54    
     57000   732.18118      6671060.2      6724.9433      48.731617      2.3577398      155028.7       156761.6     
     57100   725.51077      6673390.1      6724.9433      48.731617      2.3577398      155088.09      156805.2     
     57200   701.20084      6671887.9      6724.9433      48.731617      2.3577398      155061.89      156721.46    
     57300   666.21896      6670415.1      6724.9433      48.731617      2.3577398      155038.61      156615.39    
     57400   679.50192      6667901.2      6724.9433      48.731617      2.3577398      154972.85      156581.07    
     57500   685.55489      6670633.8      6724.9433      48.731617      2.3577398      155037.45      156659.99    
     57600   719.35048      6672544.5      6724.9433      48.731617      2.3577398      155070.68      156773.21    
     57700   715.29012      6674618.4      6724.9433      48.731617      2.3577398      155122.85      156815.77    
     57800   721.79604      6671001.1      6724.9433      48.731617      2.3577398      155030.24      156738.56    
     57900   679.58226      6668777.7      6724.9433      48.731617      2.3577398      154994.15      156602.56    
     58000   688.63121      6665757.7      6724.9433      48.731617      2.3577398      154917.51      156547.34    
     58100   676.75967      6670343.4      6724.9433      48.731617      2.3577398      155034.2       156635.93    
     58200   722.53326      6672807.6      6724.9433      48.731617      2.3577398      155074.77      156784.84    
     58300   732.9025       6674624.9      6724.9433      48.731617      2.3577398      155114.67      156849.28    
     58400   722.92196      6671385.8      6724.9433      48.731617      2.3577398      155040.37      156751.35    
     58500   682.48976      6668597.4      6724.9433      48.731617      2.3577398      154987.64      156602.93    
     58600   687.49592      6665541.2      6724.9433      48.731617      2.3577398      154910.82      156537.96    
     58700   686.22564      6668347        6724.9433      48.731617      2.3577398      154980.85      156604.98    
     58800   706.79934      6673148.8      6724.9433      48.731617      2.3577398      155089.72      156762.54    
     58900   745.77983      6673578.1      6724.9433      48.731617      2.3577398      155085.02      156850.1     
     59000   712.28195      6673513        6724.9433      48.731617      2.3577398      155095.09      156780.9     
     59100   703.29984      6667897        6724.9433      48.731617      2.3577398      154963.61      156628.15    
     59200   639.6323       6669146.1      6724.9433      48.731617      2.3577398      155018.55      156532.41    
     59300   706.5292       6665877        6724.9433      48.731617      2.3577398      154914.04      156586.23    
     59400   702.25114      6673081        6724.9433      48.731617      2.3577398      155089.84      156751.9     
     59500   717.36844      6676128.2      6724.9433      48.731617      2.3577398      155158.11      156855.95    
     59600   705.28882      6673987.2      6724.9433      48.731617      2.3577398      155110.01      156779.26    
     59700   662.90046      6670770.6      6724.9433      48.731617      2.3577398      155048.93      156617.86    
     59800   666.60942      6667135.5      6724.9433      48.731617      2.3577398      154958.76      156536.46    
     59900   668.84362      6669868.9      6724.9433      48.731617      2.3577398      155024.84      156607.83    
     60000   722.64092      6671831.5      6724.9433      48.731617      2.3577398      155051.16      156761.48    
     60100   722.86406      6674614        6724.9433      48.731617      2.3577398      155120.11      156830.96    
     60200   713.14523      6672746.5      6724.9433      48.731617      2.3577398      155078.74      156766.59    
     60300   704.73192      6668024.6      6724.9433      48.731617      2.3577398      154965.99      156633.92    
     60400   656.69845      6668330.3      6724.9433      48.731617      2.3577398      154992.19      156546.44    
     60500   679.65311      6668441.1      6724.9433      48.731617      2.3577398      154985.97      156594.55    
     60600   699.14848      6673165.1      6724.9433      48.731617      2.3577398      155092.21      156746.93    
     60700   742.16103      6674240.6      6724.9433      48.731617      2.3577398      155101.26      156857.78    
     60800   749.18791      6670527.2      6724.9433      48.731617      2.3577398      155009.63      156782.78    
     60900   680.88537      6668867.5      6724.9433      48.731617      2.3577398      154995.93      156607.42    
     61000   668.79327      6666041.3      6724.9433      48.731617      2.3577398      154932.36      156515.24    
     61100   689.60571      6667727.6      6724.9433      48.731617      2.3577398      154964.54      156596.68    
     61200   733.07004      6671803.8      6724.9433      48.731617      2.3577398      155046.5       156781.5     
     61300   736.43355      6675566.9      6724.9433      48.731617      2.3577398      155136.22      156879.18    
     61400   724.43634      6672658.9      6724.9433      48.731617      2.3577398      155071.29      156785.86    
     61500   690.48863      6668422.3      6724.9433      48.731617      2.3577398      154981.54      156615.76    
     61600   661.48844      6666919.6      6724.9433      48.731617      2.3577398      154957.01      156522.59    
     61700   656.54871      6669432.4      6724.9433      48.731617      2.3577398      155019.26      156573.16    
     61800   698.42413      6672329.8      6724.9433      48.731617      2.3577398      155074         156727       
     61900   734.30066      6674649.7      6724.9433      48.731617      2.3577398      155115         156852.91    
     62000   747.09847      6672772.7      6724.9433      48.731617      2.3577398      155064.94      156833.14    
     62100   714.20493      6668592.9      6724.9433      48.731617      2.3577398      154975.47      156665.82    
     62200   652.59867      6668000.1      6724.9433      48.731617      2.3577398      154986.34      156530.88    
     62300   661.00122      6667549.2      6724.9433      48.731617      2.3577398      154972.24      156536.68    
     62400   687.12073      6671242.8      6724.9433      48.731617      2.3577398      155052.11      156678.36    
     62500   730.40986      6674278.8      6724.9433      48.731617      2.3577398      155108.23      156836.94    
     62600   758.8837       6673182.5      6724.9433      48.731617      2.3577398      155069.83      156865.92    
     62700   733.70561      6669760.3      6724.9433      48.731617      2.3577398      154997.18      156733.68    
     62800   671.35915      6667711.3      6724.9433      48.731617      2.3577398      154971.34      156560.29    
     62900   663.48094      6666182.1      6724.9433      48.731617      2.3577398      154938.22      156508.52    
     63000   708.40307      6667176.3      6724.9433      48.731617      2.3577398      154944.49      156621.11    
     63100   724.09903      6673446.2      6724.9433      48.731617      2.3577398      155088.82      156802.59    
     63200   712.46852      6677501.7      6724.9433      48.731617      2.3577398      155193.45      156879.7     
     63300   695.71829      6675280.9      6724.9433      48.731617      2.3577398      155145.33      156791.93    
     63400   688.29439      6668332.2      6724.9433      48.731617      2.3577398      154978.76      156607.79    
     63500   653.33632      6667013.6      6724.9433      48.731617      2.3577398      154962.2       156508.49    
     63600   674.18686      6667851.8      6724.9433      48.731617      2.3577398      154973.35      156568.99    
     63700   735.20941      6669941.7      6724.9433      48.731617      2.3577398      155000.85      156740.92    
     63800   745.1993       6674379.2      6724.9433      48.731617      2.3577398      155104.08      156867.79    
     63900   732.44237      6673863.7      6724.9433      48.731617      2.3577398      155097.4       156830.91    
     64000   700.74736      6669930.3      6724.9433      48.731617      2.3577398      155013.95      156672.45    
     64100   686.66228      6665955        6724.9433      48.731617      2.3577398      154923.44      156548.61    
     64200   671.02829      6667672.6      6724.9433      48.731617      2.3577398      154970.87      156559.04    
     64300   681.85465      6671679.9      6724.9433      48.731617      2.3577398      155063.64      156677.43    
     64400   747.33246      6672139.8      6724.9433      48.731617      2.3577398      155048.69      156817.45    
     64500   722.37596      6674423.9      6724.9433      48.731617      2.3577398      155114.18      156823.87    
     64600   697.34538      6671731.3      6724.9433      48.731617      2.3577398      155059.07      156709.52    
     64700   668.53665      6669684.9      6724.9433      48.731617      2.3577398      155020.26      156602.53    
     64800   700.20808      6666039.9      6724.9433      48.731617      2.3577398      154919.19      156576.42    
     64900   657.42003      6671846.6      6724.9433      48.731617      2.3577398      155077.3       156633.25    
     65000   713.07406      6671892.5      6724.9433      48.731617      2.3577398      155057.25      156744.93    
     65100   715.07887      6673851.9      6724.9433      48.731617      2.3577398      155103.77      156796.19    
     65200   724.73212      6671811.2      6724.9433      48.731617      2.3577398      155049.94      156765.21    
[...]
    384300   712.80605      6670468.1      6724.9433      48.731617      2.3577398      155021.49      156708.54    
    384400   676.68172      6671154        6724.9433      48.731617      2.3577398      155052.88      156654.43    
    384500   699.42327      6666512.6      6724.9433      48.731617      2.3577398      154931.97      156587.34    
    384600   656.7415       6670467.4      6724.9433      48.731617      2.3577398      155044.03      156598.39    
    384700   735.1778       6669268.2      6724.9433      48.731617      2.3577398      154984.29      156724.28    
    384800   714.54182      6672149.3      6724.9433      48.731617      2.3577398      155061.99      156753.14    
    384900   705.05034      6671222.5      6724.9433      48.731617      2.3577398      155044.09      156712.78    
    385000   695.2028       6668940        6724.9433      48.731617      2.3577398      154992.3       156637.68    
    385100   668.2118       6669389.3      6724.9433      48.731617      2.3577398      155013.31      156594.8     
    385200   701.76898      6668243.2      6724.9433      48.731617      2.3577398      154973.65      156634.57    
    385300   696.92875      6673540.4      6724.9433      48.731617      2.3577398      155103.21      156752.68    
    385400   713.11292      6673572.9      6724.9433      48.731617      2.3577398      155098.17      156785.94    
    385500   703.13072      6671748.9      6724.9433      48.731617      2.3577398      155056.69      156720.83    
    385600   693.12105      6668790.8      6724.9433      48.731617      2.3577398      154989.6       156630.05    
    385700   690.09296      6668849.2      6724.9433      48.731617      2.3577398      154991.63      156624.92    
    385800   697.46833      6669715.3      6724.9433      48.731617      2.3577398      155011.02      156661.76    
    385900   693.46989      6671255.9      6724.9433      48.731617      2.3577398      155048.03      156689.3     
    386000   724.18213      6669219.7      6724.9433      48.731617      2.3577398      154988.14      156702.11    
    386100   683.85774      6672261        6724.9433      48.731617      2.3577398      155077.79      156696.32    
    386200   715.75449      6669337.1      6724.9433      48.731617      2.3577398      154992.97      156686.99    
    386300   681.13377      6669880.9      6724.9433      48.731617      2.3577398      155020.36      156632.44    
    386400   698.63503      6665519.4      6724.9433      48.731617      2.3577398      154907.94      156561.44    
    386500   668.40406      6669602.9      6724.9433      48.731617      2.3577398      155017.74      156599.69    
    386600   683.70681      6672661.6      6724.9433      48.731617      2.3577398      155086.63      156704.81    
    386700   682.90908      6673752.1      6724.9433      48.731617      2.3577398      155113.88      156730.17    
    386800   710.77793      6671145.7      6724.9433      48.731617      2.3577398      155039.37      156721.62    
    386900   693.72865      6668782.2      6724.9433      48.731617      2.3577398      154989.47      156631.36    
    387000   671.08583      6667442.4      6724.9433      48.731617      2.3577398      154965.56      156553.86    
    387100   693.29344      6667456.9      6724.9433      48.731617      2.3577398      154956.04      156596.9     
    387200   681.8857       6670463        6724.9433      48.731617      2.3577398      155034.25      156648.11    
    387300   706.61882      6669746.9      6724.9433      48.731617      2.3577398      155006.93      156679.32    
    387400   732.55227      6669382        6724.9433      48.731617      2.3577398      154988         156721.78    
    387500   706.31491      6672989.7      6724.9433      48.731617      2.3577398      155085.59      156757.27    
    387600   694.07753      6673668.1      6724.9433      48.731617      2.3577398      155107.39      156750.11    
    387700   677.23678      6671044.9      6724.9433      48.731617      2.3577398      155050.16      156653.02    
    387800   655.04253      6670781.9      6724.9433      48.731617      2.3577398      155052.1       156602.43    
    387900   714.25936      6667539.6      6724.9433      48.731617      2.3577398      154950.28      156640.76    
    388000   683.5825       6675018.4      6724.9433      48.731617      2.3577398      155144.28      156762.15    
    388100   716.51532      6673222.1      6724.9433      48.731617      2.3577398      155087.14      156782.96    
    388200   702.73481      6672368.5      6724.9433      48.731617      2.3577398      155072.94      156736.15    
    388300   705.51183      6669785.3      6724.9433      48.731617      2.3577398      155008.2       156677.97    
    388400   686.18097      6669819.4      6724.9433      48.731617      2.3577398      155017.34      156641.37    
    388500   703.99271      6669337.5      6724.9433      48.731617      2.3577398      154998.75      156664.93    
    388600   708.41509      6674729.6      6724.9433      48.731617      2.3577398      155126.44      156803.09    
    388700   728.58901      6673159.5      6724.9433      48.731617      2.3577398      155081.69      156806.08    
    388800   689.5891       6672274        6724.9433      48.731617      2.3577398      155075.47      156707.56    
    388900   700.46291      6669339.5      6724.9433      48.731617      2.3577398      154998.9       156656.73    
    389000   703.51945      6669152.5      6724.9433      48.731617      2.3577398      154993.9       156658.96    
    389100   721.18037      6669551.2      6724.9433      48.731617      2.3577398      154996.32      156703.18    
    389200   733.00752      6673879.1      6724.9433      48.731617      2.3577398      155098         156832.85    
    389300   729.73604      6674835.2      6724.9433      48.731617      2.3577398      155121.27      156848.38    
    389400   695.6933       6674077.1      6724.9433      48.731617      2.3577398      155117.17      156763.71    
    389500   667.70361      6674253.3      6724.9433      48.731617      2.3577398      155131.28      156711.58    
    389600   690.56545      6670992.1      6724.9433      48.731617      2.3577398      155043.48      156677.88    
    389700   706.54788      6668264.3      6724.9433      48.731617      2.3577398      154969.85      156642.08    
    389800   692.97412      6667539.7      6724.9433      48.731617      2.3577398      154958.65      156598.75    
    389900   693.393        6666815.2      6724.9433      48.731617      2.3577398      154941.73      156582.83    
    390000   679.32562      6671792.1      6724.9433      48.731617      2.3577398      155067.95      156675.75    
    390100   696.66816      6673302.7      6724.9433      48.731617      2.3577398      155098.18      156747.03    
    390200   715.53005      6672059.6      6724.9433      48.731617      2.3577398      155059.47      156752.96    
    390300   695.77626      6670547.2      6724.9433      48.731617      2.3577398      155030.14      156676.88    
    390400   676.93029      6667996.5      6724.9433      48.731617      2.3577398      154975.95      156578.09    
    390500   699.78911      6666721.2      6724.9433      48.731617      2.3577398      154936.66      156592.89    
    390600   677.44629      6670597.9      6724.9433      48.731617      2.3577398      155039.4       156642.76    
    390700   686.24262      6672122.6      6724.9433      48.731617      2.3577398      155073.6       156697.77    
    390800   712.44805      6671622.5      6724.9433      48.731617      2.3577398      155050.33      156736.52    
    390900   709.87946      6671328.4      6724.9433      48.731617      2.3577398      155044.78      156724.9     
    391000   678.63308      6668469.1      6724.9433      48.731617      2.3577398      154986.75      156592.91    
    391100   662.66919      6668671.9      6724.9433      48.731617      2.3577398      154997.58      156565.96    
    391200   698.31316      6669217.5      6724.9433      48.731617      2.3577398      154997.84      156650.58    
    391300   730.26322      6669427.7      6724.9433      48.731617      2.3577398      154990.24      156718.6     
    391400   704.56715      6671763.2      6724.9433      48.731617      2.3577398      155056.4       156723.95    
    391500   682.44147      6672302.1      6724.9433      48.731617      2.3577398      155079.38      156694.56    
    391600   683.89407      6668001.8      6724.9433      48.731617      2.3577398      154974.22      156592.84    
    391700   677.38206      6666076.8      6724.9433      48.731617      2.3577398      154929.73      156532.94    
    391800   674.77614      6669341.2      6724.9433      48.731617      2.3577398      155008.77      156605.8     
    391900   697.55213      6669929.8      6724.9433      48.731617      2.3577398      155014.46      156665.4     
    392000   680.51199      6672536        6724.9433      48.731617      2.3577398      155085.19      156695.8     
    392100   724.94894      6670331.1      6724.9433      48.731617      2.3577398      155015.07      156730.85    
    392200   705.54472      6672641.6      6724.9433      48.731617      2.3577398      155078.07      156747.93    
    392300   702.53336      6670768.2      6724.9433      48.731617      2.3577398      155033.83      156696.56    
    392400   677.31298      6669132.4      6724.9433      48.731617      2.3577398      155004.59      156607.63    
    392500   677.55843      6669193.2      6724.9433      48.731617      2.3577398      155004.23      156607.85    
    392600   682.6749       6672831.7      6724.9433      48.731617      2.3577398      155091.92      156707.65    
    392700   745.4304       6669877.9      6724.9433      48.731617      2.3577398      154994.85      156759.11    
    392800   720.90917      6670792.6      6724.9433      48.731617      2.3577398      155026.31      156732.53    
    392900   714.83649      6669392.3      6724.9433      48.731617      2.3577398      154995.09      156686.94    
    393000   690.78522      6669802.9      6724.9433      48.731617      2.3577398      155013.76      156648.68    
    393100   667.20555      6672414.1      6724.9433      48.731617      2.3577398      155087.08      156666.19    
    393200   698.00514      6674981.8      6724.9433      48.731617      2.3577398      155138.26      156790.27    
    393300   739.24494      6672653.7      6724.9433      48.731617      2.3577398      155064.7       156814.31    
    393400   718.75443      6670451.5      6724.9433      48.731617      2.3577398      155019.05      156720.17    
    393500   719.49926      6667518.7      6724.9433      48.731617      2.3577398      154949.41      156652.29    
    393600   706.19828      6668800.8      6724.9433      48.731617      2.3577398      154983.67      156655.07    
    393700   697.32027      6671179.8      6724.9433      48.731617      2.3577398      155045.48      156695.87    
    393800   739.74552      6672083.6      6724.9433      48.731617      2.3577398      155051.01      156801.81    
    393900   732.29628      6674662.5      6724.9433      48.731617      2.3577398      155115.9       156849.07    
    394000   704.49844      6670550.9      6724.9433      48.731617      2.3577398      155027.96      156695.34    
    394100   710.80441      6668074        6724.9433      48.731617      2.3577398      154964.78      156647.08    
    394200   681.90108      6670607.5      6724.9433      48.731617      2.3577398      155037.48      156651.38    
    394300   679.78646      6672887.8      6724.9433      48.731617      2.3577398      155094.15      156703.04    
    394400   731.59114      6671324.8      6724.9433      48.731617      2.3577398      155036.35      156767.86    
    394500   725.37925      6672077.6      6724.9433      48.731617      2.3577398      155057.54      156774.34    
    394600   701.71798      6669211.4      6724.9433      48.731617      2.3577398      154996.82      156657.62    
    394700   672.9449       6669046.6      6724.9433      48.731617      2.3577398      155003.38      156596.09    
    394800   697.31592      6668640.7      6724.9433      48.731617      2.3577398      154984.6       156634.99    
    394900   698.3735       6671688.5      6724.9433      48.731617      2.3577398      155057.75      156710.64    
    395000   721.0092       6671065        6724.9433      48.731617      2.3577398      155033.28      156739.73    
    395100   738.87603      6669181.4      6724.9433      48.731617      2.3577398      154980.43      156729.17    
    395200   708.07655      6670731.1      6724.9433      48.731617      2.3577398      155031.38      156707.23    
    395300   713.94091      6669383.9      6724.9433      48.731617      2.3577398      154996.01      156685.74    
    395400   713.73947      6668187.6      6724.9433      48.731617      2.3577398      154967.37      156656.63    
    395500   665.59454      6668503.3      6724.9433      48.731617      2.3577398      154993.49      156568.79    
    395600   639.88109      6669018.5      6724.9433      48.731617      2.3577398      155016.11      156530.56    
    395700   686.42443      6669731.2      6724.9433      48.731617      2.3577398      155013.67      156638.27    
    395800   714.17631      6670198.4      6724.9433      48.731617      2.3577398      155015.66      156705.95    
    395900   723.12907      6670311.5      6724.9433      48.731617      2.3577398      155014.02      156725.5     
    396000   708.13954      6670725.8      6724.9433      48.731617      2.3577398      155030.88      156706.88    
    396100   684.06599      6668901.6      6724.9433      48.731617      2.3577398      154996.15      156615.17    
    396200   669.27552      6667888.5      6724.9433      48.731617      2.3577398      154976.05      156560.07    
    396300   685.88167      6669933.1      6724.9433      48.731617      2.3577398      155019.94      156643.26    
    396400   720.66272      6671003.5      6724.9433      48.731617      2.3577398      155032.33      156737.96    
    396500   726.21655      6670275.9      6724.9433      48.731617      2.3577398      155012         156730.78    
    396600   702.42069      6669955.2      6724.9433      48.731617      2.3577398      155013.42      156675.88    
    396700   705.42914      6667297.4      6724.9433      48.731617      2.3577398      154947.75      156617.34    
    396800   698.42727      6667915.7      6724.9433      48.731617      2.3577398      154966.19      156619.21    
    396900   684.01026      6674192.8      6724.9433      48.731617      2.3577398      155123.38      156742.27    
    397000   736.71536      6671622.7      6724.9433      48.731617      2.3577398      155040.04      156783.67    
    397100   728.01416      6669881.6      6724.9433      48.731617      2.3577398      155002.4       156725.44    
    397200   699.07667      6668877.2      6724.9433      48.731617      2.3577398      154989.01      156643.56    
    397300   689.22056      6669414.3      6724.9433      48.731617      2.3577398      155005.71      156636.93    
    397400   689.79297      6670549.4      6724.9433      48.731617      2.3577398      155034.07      156666.65    
    397500   721.16195      6669442.3      6724.9433      48.731617      2.3577398      154993.36      156700.18    
    397600   696.31047      6671907        6724.9433      48.731617      2.3577398      155063.33      156711.33    
    397700   692.13411      6671269.1      6724.9433      48.731617      2.3577398      155051.14      156689.26    
    397800   650.96283      6671235.7      6724.9433      48.731617      2.3577398      155064.97      156605.64    
    397900   692.62362      6667332.8      6724.9433      48.731617      2.3577398      154954.76      156594.04    
    398000   691.19409      6671093.6      6724.9433      48.731617      2.3577398      155045.62      156681.51    
    398100   733.70919      6670508.8      6724.9433      48.731617      2.3577398      155015.73      156752.25    
    398200   692.21926      6673263.9      6724.9433      48.731617      2.3577398      155096.98      156735.3     
    398300   704.36692      6670087.2      6724.9433      48.731617      2.3577398      155016.92      156683.99    
    398400   689.30672      6669945.9      6724.9433      48.731617      2.3577398      155018.69      156650.11    
    398500   698.55835      6669367.6      6724.9433      48.731617      2.3577398      155001.53      156654.85    
    398600   713.04609      6669028.7      6724.9433      48.731617      2.3577398      154985.88      156673.49    
    398700   708.28634      6670175.8      6724.9433      48.731617      2.3577398      155016.15      156692.49    
    398800   699.50694      6671509        6724.9433      48.731617      2.3577398      155053.51      156709.08    
    398900   729.55589      6668959        6724.9433      48.731617      2.3577398      154979.12      156705.81    
    399000   684.01559      6670914.7      6724.9433      48.731617      2.3577398      155044.29      156663.2     
    399100   672.32408      6669774.8      6724.9433      48.731617      2.3577398      155020.86      156612.09    
    399200   679.70108      6668630.4      6724.9433      48.731617      2.3577398      154990.29      156598.98    
    399300   696.28054      6671620.5      6724.9433      48.731617      2.3577398      155056.32      156704.26    
    399400   702.15309      6673865.4      6724.9433      48.731617      2.3577398      155108.28      156770.11    
    399500   705.90641      6671927.6      6724.9433      48.731617      2.3577398      155059.84      156730.56    
    399600   679.67087      6671098.8      6724.9433      48.731617      2.3577398      155050.04      156658.66    
    399700   698.64234      6668473.2      6724.9433      48.731617      2.3577398      154980.41      156633.93    
    399800   701.46783      6669154.2      6724.9433      48.731617      2.3577398      154993.99      156654.19    
    399900   684.98948      6671579.5      6724.9433      48.731617      2.3577398      155058.7       156679.91    
    400000   691.93871      6672052.1      6724.9433      48.731617      2.3577398      155068.17      156705.82    
    400100   721.06961      6671320.3      6724.9433      48.731617      2.3577398      155040.03      156746.63    
Loop time of 23.9147 on 64 procs for 400000 steps with 795 atoms

Performance: 361.284 ns/day, 0.066 hours/ns, 16726.133 timesteps/s
99.6% CPU use with 64 MPI tasks x 1 OpenMP threads

MPI task timing breakdown:
Section |  min time  |  avg time  |  max time  |%varavg| %total
---------------------------------------------------------------
Pair    | 2.2255     | 2.77       | 3.4821     |  14.7 | 11.58
Neigh   | 0.16876    | 0.20012    | 0.23412    |   3.1 |  0.84
Comm    | 14.546     | 15.371     | 16.332     |  10.8 | 64.27
Output  | 0.31615    | 0.31949    | 0.35517    |   0.8 |  1.34
Modify  | 4.107      | 4.7207     | 5.5901     |  17.0 | 19.74
Other   |            | 0.5332     |            |       |  2.23

Nlocal:        12.4219 ave          16 max          10 min
Histogram: 1 9 0 28 0 17 7 0 1 1
Nghost:        655.906 ave         679 max         625 min
Histogram: 2 1 7 2 9 11 13 9 8 2
Neighs:        830.938 ave        1095 max         643 min
Histogram: 1 3 9 20 13 9 5 3 0 1

Total # of neighbors = 53180
Ave neighs/atom = 66.893082
Neighbor list builds = 7518
Dangerous builds = 27

write_data graphene_single_layer_LJ_795C_after_temp_700K.data ### MODIFY FILE NAME ###
System init for write_data ...
Generated 0 of 0 mixed pair_coeff terms from geometric mixing rule
Total wall time: 0:00:24
