# System definition
read_data graphene_single_layer_x-45_y-45_795_C.data
Reading data file ...
  orthogonal box = (-51 -51 -51) to (96 96 51)
  1 by 1 by 1 MPI processor grid
  reading atoms ...
  795 atoms
  read_data CPU = 0.010 seconds
pair_style lj/cut 6
pair_coeff      1 1 0.066047 3.4

# Virtual force wall to keep the cylinder shape
#region myCylinder cylinder z 0. 0. 20.3 -22.079997 505.920003 units box
#fix wall all wall/region myCylinder lj93 1.0 1.0 2.5

# Minimization
timestep 0.25
thermo 100
thermo_style custom step temp press vol lx density pe etotal
dump 2 all custom 1000 graphene_single_layer_LJ_795C_after_temp_1400K.lammpstrj id type x y z
min_style cg
minimize 1.0e-6 1.0e-6 100 1000
WARNING: Using 'neigh_modify every 1 delay 0 check yes' setting during minimization (../min.cpp:187)
  generated 0 of 0 mixed pair_coeff terms from geometric mixing rule
Neighbor list info ...
  update every 1 steps, delay 0 steps, check yes
  max neighbors/atom: 10000, page size: 100000
  master list distance cutoff = 6.4
  ghost atom cutoff = 6.4
  binsize = 3.2, bins = 46 46 32
  1 neighbor lists, perpetual/occasional/extra = 1 0 0
  (1) pair lj/cut, perpetual
      attributes: half, newton on
      pair build: half/bin/atomonly/newton
      stencil: half/bin/3d
      bin: standard
Per MPI rank memory allocation (min/avg/max) = 5.96 | 5.96 | 5.96 Mbytes
Step Temp Press Volume Lx Density PotEng TotEng 
       0            0    1335313.5      2204118          147  0.007193656     10699602     10699602 
     100            0     61841.43      2204118          147  0.007193656    488621.59    488621.59 
Loop time of 0.0591483 on 1 procs for 100 steps with 795 atoms

100.0% CPU use with 1 MPI tasks x no OpenMP threads

Minimization stats:
  Stopping criterion = max iterations
  Energy initial, next-to-last, final = 
      10699602.3573369   495470.853828546   488621.590421788
  Force two-norm initial, final = 694694.42 29375.63
  Force max component initial, final = 79169.705 9280.0147
  Final line search alpha, max atom move = 3.8811533e-05 0.36017159
  Iterations, force evaluations = 100 117

MPI task timing breakdown:
Section |  min time  |  avg time  |  max time  |%varavg| %total
---------------------------------------------------------------
Pair    | 0.038651   | 0.038651   | 0.038651   |   0.0 | 65.35
Neigh   | 0.016717   | 0.016717   | 0.016717   |   0.0 | 28.26
Comm    | 0.0003578  | 0.0003578  | 0.0003578  |   0.0 |  0.60
Output  | 7.28e-05   | 7.28e-05   | 7.28e-05   |   0.0 |  0.12
Modify  | 0          | 0          | 0          |   0.0 |  0.00
Other   |            | 0.003349   |            |       |  5.66

Nlocal:            795 ave         795 max         795 min
Histogram: 1 0 0 0 0 0 0 0 0 0
Nghost:              0 ave           0 max           0 min
Histogram: 1 0 0 0 0 0 0 0 0 0
Neighs:          13073 ave       13073 max       13073 min
Histogram: 1 0 0 0 0 0 0 0 0 0

Total # of neighbors = 13073
Ave neighs/atom = 16.444025
Neighbor list builds = 35
Dangerous builds = 0
#timestep 0.25
fix 1 all nvt temp 1400.0 1400.0 $(100.0*dt)
fix 1 all nvt temp 1400.0 1400.0 25
run 400000
  generated 0 of 0 mixed pair_coeff terms from geometric mixing rule
Per MPI rank memory allocation (min/avg/max) = 4.835 | 4.835 | 4.835 Mbytes
Step Temp Press Volume Lx Density PotEng TotEng 
     100            0     61841.43      2204118          147  0.007193656    488621.59    488621.59 
     200    36482.847     20088.15      2204118          147  0.007193656    142372.28    228718.54 
     300    11128.032    8318.0239      2204118          147  0.007193656    59374.304    85711.721 
     400     5284.171    4961.6806      2204118          147  0.007193656    35369.497    47875.878 
     500    3277.8219    3443.9256      2204118          147  0.007193656    24346.168    32103.996 
     600    2371.3478    2574.2935      2204118          147  0.007193656    17975.207    23587.625 
     700    1892.1669    2007.3368      2204118          147  0.007193656    13804.237    18282.548 
     800    1617.7616    1609.8722      2204118          147  0.007193656    10875.527    14704.386 
     900    1465.1304    1315.5255      2204118          147  0.007193656    8701.8691    12169.486 
    1000    1393.4397    1088.7299      2204118          147  0.007193656    7021.0698    10319.012 
    1100    1372.6493    908.36064      2204118          147  0.007193656    5680.4062     8929.142 
    1200    1374.7951    761.87388      2204118          147  0.007193656    4592.9972    7846.8117 
    1300    1376.6356    642.16566      2204118          147  0.007193656    3712.0438    6970.2142 
    1400    1374.8601    544.17232      2204118          147  0.007193656    2998.9036    6252.8719 
    1500    1377.7056    463.51373      2204118          147  0.007193656    2416.6115    5677.3144 
    1600    1385.1342    396.53829      2204118          147  0.007193656    1936.8517    5215.1363 
    1700    1388.1172    340.86374      2204118          147  0.007193656    1544.1372    4829.4818 
    1800    1386.9076    294.49147      2204118          147  0.007193656    1223.0277    4505.5095 
    1900    1387.7294    255.99262      2204118          147  0.007193656    959.99923     4244.426 
    2000     1392.423     224.0134      2204118          147  0.007193656    743.68187    4039.2174 
    2100    1395.6787    197.30464      2204118          147  0.007193656    566.56453    3869.8054 
    2200     1394.335    174.90149      2204118          147  0.007193656    422.21659    3722.2773 
    2300    1392.6316    156.30099      2204118          147  0.007193656    305.07441    3601.1035 
    2400    1395.2766    141.04489      2204118          147  0.007193656    210.36275    3512.6519 
    2500    1399.3452    128.40046      2204118          147  0.007193656    133.77459    3445.6932 
    2600    1399.5473    117.54111      2204118          147  0.007193656    71.151113    3383.5481 
    2700    1396.0877    108.31903      2204118          147  0.007193656    21.251471    3325.4604 
    2800    1395.4548    100.78345      2204118          147  0.007193656   -18.146145    3284.5649 
    2900    1399.5937    94.697876      2204118          147  0.007193656   -49.224636    3263.2822 
    3000    1402.0076     89.54906      2204118          147  0.007193656   -73.510515    3244.7095 
    3100    1398.9744    85.040786      2204118          147  0.007193656   -91.794405    3219.2468 
    3200    1395.9601    81.272326      2204118          147  0.007193656   -105.67864    3198.2284 
    3300    1398.3513    78.369523      2204118          147  0.007193656   -116.19076    3193.3755 
    3400    1402.4078    76.026632      2204118          147  0.007193656   -124.15625     3195.011 
    3500    1401.5098    73.841436      2204118          147  0.007193656   -129.95094    3187.0909 
    3600    1397.3406    71.849013      2204118          147  0.007193656   -133.75002    3173.4242 
    3700     1397.054    70.340847      2204118          147  0.007193656   -136.04952    3170.4465 
    3800    1401.2428    69.309351      2204118          147  0.007193656   -136.99168    3179.4183 
    3900    1402.9432    68.374588      2204118          147  0.007193656   -136.80666    3183.6277 
    4000    1399.3526    67.363761      2204118          147  0.007193656   -135.75784    3176.1785 
    4100    1396.6039    66.552608      2204118          147  0.007193656   -133.98326    3171.4474 
    4200    1399.3852    66.144079      2204118          147  0.007193656   -131.67055    3180.3427 
    4300    1403.0638    65.890221      2204118          147  0.007193656   -128.93781     3191.782 
    4400    1401.4532    65.471452      2204118          147  0.007193656   -125.87538    3191.0324 
    4500    1397.3036     65.00882      2204118          147  0.007193656    -122.5629    3184.5238 
    4600    1397.6438    64.832292      2204118          147  0.007193656   -119.09973    3188.7922 
    4700    1401.9334    64.904923      2204118          147  0.007193656   -115.52446      3202.52 
    4800    1402.9503    64.863985      2204118          147  0.007193656   -111.87383    3208.5773 
    4900    1398.9754    64.615042      2204118          147  0.007193656   -108.24054     3202.803 
    5000    1396.7328    64.486133      2204118          147  0.007193656    -104.5868    3201.1489 
    5100    1400.0156    64.655379      2204118          147  0.007193656   -100.97394    3212.5314 
    5200    1403.3071    64.847073      2204118          147  0.007193656   -97.417814    3223.8778 
    5300    1401.0399    64.784602      2204118          147  0.007193656   -93.917415    3222.0122 
    5400    1397.0505    64.649373      2204118          147  0.007193656   -90.533222    3215.9544 
    5500     1398.075    64.769984      2204118          147  0.007193656   -87.245102    3221.6674 
    5600    1402.4021    65.055496      2204118          147  0.007193656   -84.123363    3235.0303 
    5700    1402.7255    65.148865      2204118          147  0.007193656    -81.11368    3238.8055 
    5800    1398.4874    65.022547      2204118          147  0.007193656   -78.204142    3231.6843 
    5900    1396.8443      65.0263      2204118          147  0.007193656   -75.410474    3230.5892 
    6000    1400.5688    65.296851      2204118          147  0.007193656   -72.712895    3242.1017 
    6100    1403.3871    65.525716      2204118          147  0.007193656   -70.112965    3251.3719 
    6200    1400.5212     65.47589      2204118          147  0.007193656   -67.645268    3247.0567 
    6300    1396.8126    65.388458      2204118          147  0.007193656   -65.243596    3240.6811 
    6400    1398.5164     65.56634      2204118          147  0.007193656   -62.964281    3246.9929 
    6500    1402.7722    65.867366      2204118          147  0.007193656     -60.8246     3259.205 
    6600    1402.3896    65.942235      2204118          147  0.007193656   -58.754981    3260.3692 
    6700     1398.022    65.815007      2204118          147  0.007193656   -56.892187    3251.8949 
    6800     1397.044    65.868496      2204118          147  0.007193656   -55.095567    3251.3768 
    6900    1400.1109     66.51716      2204118          147  0.007193656   -50.793887    3262.9372 
    7000    1398.0185    68.722092      2204118          147  0.007193656   -33.266358    3275.5124 
    7100    1403.5794    69.123849      2204118          147  0.007193656   -32.665014     3289.275 
    7200    1396.0217    71.818128      2204118          147  0.007193656   -10.650686     3293.402 
    7300    1405.5774    72.243671      2204118          147  0.007193656   -11.690435    3314.9784 
    7400    1390.1966    78.390529      2204118          147  0.007193656    39.433025    3329.6991 
    7500    1402.3927    79.213731      2204118          147  0.007193656    39.071879    3358.2032 
    7600     1402.302    82.664764      2204118          147  0.007193656    63.047606    3381.9644 
    7700    1392.2572    87.513546      2204118          147  0.007193656    101.06812    3396.2113 
    7800     1425.535    85.006882      2204118          147  0.007193656    68.221043    3442.1249 
    7900    1391.6517    91.460544      2204118          147  0.007193656    128.50843    3422.2185 
    8000    1399.3954    89.594947      2204118          147  0.007193656    109.78053    3421.8181 
    8100     1399.757    92.027841      2204118          147  0.007193656    127.34102    3440.2343 
    8200    1396.5951    92.962847      2204118          147  0.007193656    134.30916    3439.7189 
    8300     1396.858    92.289979      2204118          147  0.007193656    129.19314    3435.2252 
    8400     1386.331    93.450346      2204118          147  0.007193656    140.13695    3421.2542 
    8500    1384.1135    98.374039      2204118          147  0.007193656     175.6487    3451.5175 
    8600    1425.7443    99.152903      2204118          147  0.007193656    164.34583     3538.745 
    8700    1421.8763    99.172981      2204118          147  0.007193656    164.23442     3529.479 
    8800    1370.3114    102.49398      2204118          147  0.007193656     206.4871    3449.6897 
    8900    1400.2396    97.673265      2204118          147  0.007193656    158.95185    3472.9873 
    9000    1414.4182    97.420504      2204118          147  0.007193656    151.89394    3499.4869 
    9100    1400.9845    98.133263      2204118          147  0.007193656    161.47965    3477.2781 
    9200     1398.038    94.237236      2204118          147  0.007193656     132.5371     3441.362 
    9300    1376.4566    97.618572      2204118          147  0.007193656    164.60944    3422.3563 
    9400     1414.449    95.886353      2204118          147  0.007193656    137.07341    3484.7393 
    9500    1416.0473    96.380297      2204118          147  0.007193656    138.71393    3490.1624 
    9600    1394.7322    96.649644      2204118          147  0.007193656    146.70897    3447.7097 
    9700    1378.1943    100.91905      2204118          147  0.007193656    182.47383    3444.3333 
    9800    1397.2303    105.81847      2204118          147  0.007193656     209.2116    3516.1247 
    9900    1428.8094     109.4221      2204118          147  0.007193656    224.97662    3606.6301 
   10000    1435.6792    100.04758      2204118          147  0.007193656    153.57052    3551.4832 
   10100    1359.3632    94.523842      2204118          147  0.007193656    140.79783    3358.0887 
   10200    1345.1877    94.797754      2204118          147  0.007193656    146.58699    3330.3276 
   10300    1423.9464    100.74256      2204118          147  0.007193656    160.82184    3530.9658 
   10400    1472.3643    101.99188      2204118          147  0.007193656    150.11627     3634.854 
   10500    1373.7865    105.81711      2204118          147  0.007193656    212.76469     3464.192 
   10600    1354.5318    100.81513      2204118          147  0.007193656    181.30971    3387.1658 
   10700    1397.1858    104.98338      2204118          147  0.007193656    197.43077    3504.2387 
   10800    1459.3859    107.76081      2204118          147  0.007193656    195.34131    3649.3622 
   10900    1413.4243    108.73849      2204118          147  0.007193656    220.09335    3565.3339 
   11000    1362.4569    99.815479      2204118          147  0.007193656    168.55755    3393.1704 
   11100    1307.3486    117.06649      2204118          147  0.007193656    318.33396    3412.5185 
   11200    1478.6794    112.01186      2204118          147  0.007193656     213.8244    3713.5083 
   11300    1480.7632    118.81842      2204118          147  0.007193656    265.18466    3769.8005 
   11400    1348.3711    119.56172      2204118          147  0.007193656    316.74079    3508.0157 
   11500    1310.8363      118.034      2204118          147  0.007193656    316.27939    3418.7185 
   11600    1423.6433    120.24547      2204118          147  0.007193656    291.39281    3660.8193 
   11700    1425.9529    136.58542      2204118          147  0.007193656    414.49681    3789.3895 
   11800    1425.4208    123.82768      2204118          147  0.007193656    314.04896    3687.6824 
   11900    1332.1367    128.85298      2204118          147  0.007193656    386.92175    3539.7737 
   12000    1376.5712    129.84608      2204118          147  0.007193656    377.48418    3635.5023 
   12100    1453.7816      133.142      2204118          147  0.007193656    372.51503    3813.2718 
   12200    1422.9174    129.66878      2204118          147  0.007193656    358.09544    3725.8041 
   12300    1357.4041    118.89533      2204118          147  0.007193656    299.59354    3512.2475 
   12400    1325.9528    128.16901      2204118          147  0.007193656    380.93235    3519.1487 
   12500    1473.4564     127.5483      2204118          147  0.007193656    320.27022    3807.5925 
   12600    1447.3553    146.12157      2204118          147  0.007193656    472.00617    3897.5535 
   12700    1406.3342    134.48122      2204118          147  0.007193656    394.93483    3723.3948 
   12800    1342.6299    129.16032      2204118          147  0.007193656    378.16157    3555.8486 
   12900    1406.1715    120.81984      2204118          147  0.007193656    290.71928    3618.7942 
   13000    1442.5728    131.62899      2204118          147  0.007193656    359.58482    3773.8129 
   13100    1450.8484    137.11471      2204118          147  0.007193656    396.95572    3830.7703 
   13200    1408.7383    133.10611      2204118          147  0.007193656    380.82376    3714.9738 
   13300    1332.0755    135.46605      2204118          147  0.007193656    428.33301    3581.0403 
   13400    1414.4343     127.6898      2204118          147  0.007193656     340.5476    3688.1786 
   13500    1462.1904    129.00816      2204118          147  0.007193656    334.27107    3794.9294 
   13600    1407.8326    126.44492      2204118          147  0.007193656    334.87335    3666.8798 
   13700    1351.9646    121.12268      2204118          147  0.007193656    314.86182    3514.6419 
   13800    1318.5941    136.08379      2204118          147  0.007193656    442.17173    3562.9717 
   13900     1431.829    140.25344      2204118          147  0.007193656    427.22013    3816.0202 
   14000    1456.2459    144.96937      2204118          147  0.007193656    451.13797    3897.7272 
   14100    1406.3773    133.31425      2204118          147  0.007193656    380.40887     3708.971 
   14200    1323.7997    135.72189      2204118          147  0.007193656    428.33772    3561.4581 
   14300     1426.706    128.26871      2204118          147  0.007193656    335.54908    3712.2243 
   14400    1456.8475    133.89609      2204118          147  0.007193656    368.30287    3816.3158 
   14500    1402.9678    130.83782      2204118          147  0.007193656    363.84105    3684.3336 
   14600    1326.3788    134.81972      2204118          147  0.007193656    422.93185    3562.1563 
   14700    1405.3157     130.4775      2204118          147  0.007193656    360.91272    3686.9622 
   14800    1457.4515    130.37585      2204118          147  0.007193656    340.15288    3789.5955 
   14900    1401.4004    126.36217      2204118          147  0.007193656    329.20815    3645.9911 
   15000    1347.1732     123.6416      2204118          147  0.007193656    328.24861    3516.6886 
   15100    1374.5862    129.19234      2204118          147  0.007193656    360.01102    3613.3311 
   15200    1443.2996     134.7769      2204118          147  0.007193656    377.12744    3793.0758 
   15300    1445.8748    132.25651      2204118          147  0.007193656    360.65733    3782.7005 
   15400    1374.4229    123.88979      2204118          147  0.007193656     326.0841    3579.0177 
   15500    1356.5623    117.21619      2204118          147  0.007193656     283.6637    3494.3255 
   15600    1414.7568    117.68306      2204118          147  0.007193656      266.773    3615.1674 
   15700    1457.1734    117.54768      2204118          147  0.007193656    249.40521    3698.1896 
   15800    1390.0905    119.78067      2204118          147  0.007193656    289.66775    3579.6827 
   15900    1341.0275    123.67691      2204118          147  0.007193656    336.08572    3509.9802 
   16000     1437.644    116.52713      2204118          147  0.007193656    246.98844    3649.5513 
   16100    1428.5078    125.07748      2204118          147  0.007193656    316.92002    3697.8597 
   16200    1380.1761    123.93761      2204118          147  0.007193656    326.65804    3593.2081 
   16300      1383.88     115.1054      2204118          147  0.007193656    258.78611    3534.1023 
   16400    1381.0134     117.9653      2204118          147  0.007193656     283.2729    3551.8047 
   16500    1411.6299    116.52076      2204118          147  0.007193656     259.8147    3600.8085 
   16600     1400.286     119.1205      2204118          147  0.007193656    281.23009    3595.3754 
   16700    1390.6749    118.97715      2204118          147  0.007193656      281.195    3572.5931 
   16800    1378.2372    126.26928      2204118          147  0.007193656    339.92825    3601.8892 
   16900    1443.1378    120.96893      2204118          147  0.007193656     275.6118    3691.1771 
   17000    1413.9749    120.93668      2204118          147  0.007193656    285.60615    3632.1498 
   17100    1362.6741    119.61122      2204118          147  0.007193656    295.17746    3520.3044 
   17200    1389.5559    115.99484      2204118          147  0.007193656    261.48897    3550.2386 
   17300    1429.8185    114.57404      2204118          147  0.007193656     239.5545    3623.5962 
   17400    1412.4408    112.43252      2204118          147  0.007193656    231.56418    3574.4771 
   17500    1375.1964    108.61774      2204118          147  0.007193656    215.83493    3470.5991 
   17600     1357.407    113.64293      2204118          147  0.007193656    258.49132    3471.1523 
   17700    1419.0932    118.79403      2204118          147  0.007193656    273.62058    3632.2781 
   17800    1459.3154     117.5733      2204118          147  0.007193656    250.44519    3704.2992 
   17900    1397.4019    111.56863      2204118          147  0.007193656    230.38508    3537.7045 
   18000    1348.3333    102.73578      2204118          147  0.007193656    184.66822    3375.8538 
   18100    1361.8086    105.47746      2204118          147  0.007193656    202.58212    3425.6606 
   18200    1452.8725    107.26062      2204118          147  0.007193656    183.84396    3622.4491 
   18300    1437.2155    111.40992      2204118          147  0.007193656    221.69101    3623.2397 
   18400    1369.4683     107.4588      2204118          147  0.007193656    217.76466    3458.9718 
   18500    1365.5333     99.45966      2204118          147  0.007193656    159.00967    3390.9037 
   18600    1375.1995    109.08365      2204118          147  0.007193656     227.5849    3482.3564 
   18700    1468.4693    107.80443      2204118          147  0.007193656    183.44925    3658.9684 
   18800    1441.0032    105.61239      2204118          147  0.007193656    176.79755    3587.3109 
   18900    1314.3078    111.68965      2204118          147  0.007193656    266.82081    3377.4762 
   19000    1369.7116    109.10975      2204118          147  0.007193656    225.20124    3466.9843 
   19100    1466.9484    114.56651      2204118          147  0.007193656    231.10497    3703.0244 
   19200    1458.4333    113.16301      2204118          147  0.007193656    223.88264    3675.6489 
   19300    1360.3362    105.78707      2204118          147  0.007193656    204.40453    3423.9981 
   19400    1326.5163    104.61023      2204118          147  0.007193656    209.04593    3348.5958 
   19500     1436.465    102.85202      2204118          147  0.007193656    157.79461    3557.5671 
   19600    1466.7215    105.83566      2204118          147  0.007193656     169.6677      3641.05 
   19700    1375.1075    107.91306      2204118          147  0.007193656    217.19932    3471.7531 
   19800      1338.04    107.54789      2204118          147  0.007193656    227.29092    3394.1148 
   19900    1421.6167       105.07      2204118          147  0.007193656    178.19876    3542.8288 
   20000    1440.0213    112.21176      2204118          147  0.007193656    226.11214    3634.3016 
   20100    1399.9138    108.19677      2204118          147  0.007193656    209.85794    3523.1223 
   20200    1362.3801    102.80137      2204118          147  0.007193656    183.57351    3408.0046 
   20300    1369.1229    106.39747      2204118          147  0.007193656    209.30203    3449.6917 
   20400    1436.2913    107.95012      2204118          147  0.007193656     196.2722    3595.6335 
   20500    1425.7596     110.0953      2204118          147  0.007193656    215.55468    3589.9901 
   20600    1370.9792    108.79651      2204118          147  0.007193656    224.84176    3469.6249 
   20700    1369.5898    106.09562      2204118          147  0.007193656    204.27419     3445.769 
   20800      1396.21    110.25866      2204118          147  0.007193656    222.74787    3527.2463 
   20900    1412.6657    121.63229      2204118          147  0.007193656     301.3893    3644.8344 
   21000    1449.5531    118.49826      2204118          147  0.007193656    265.79547    3696.5444 
   21100     1410.689    107.05714      2204118          147  0.007193656    194.58196    3533.3488 
   21200    1330.3305    106.51971      2204118          147  0.007193656    220.60708    3369.1843 
   21300    1372.9059    109.96581      2204118          147  0.007193656    232.21942    3481.5625 
   21400    1467.2164    112.95007      2204118          147  0.007193656    220.25834     3692.812 
   21500    1447.0287    110.88726      2204118          147  0.007193656    212.84424    3637.6184 
   21600    1350.6013    105.03861      2204118          147  0.007193656    203.81096    3400.3643 
   21700    1330.5208    107.58582      2204118          147  0.007193656    229.78927     3378.817 
   21800    1440.2357    111.46704      2204118          147  0.007193656    219.84713    3628.5439 
   21900    1476.9036    112.54955      2204118          147  0.007193656    215.71524    3711.1963 
   22000    1360.2502    111.60338      2204118          147  0.007193656    250.37126    3469.7614 
   22100    1330.3472    106.76327      2204118          147  0.007193656    224.36117     3372.978 
   22200    1405.1681    111.34421      2204118          147  0.007193656    230.37063    3556.0708 
   22300    1469.9545    118.23159      2204118          147  0.007193656    258.87678    3737.9111 
   22400    1414.7478    117.80894      2204118          147  0.007193656    278.27216    3626.6452 
   22500    1348.6131    105.25474      2204118          147  0.007193656      207.344    3399.1918 
   22600    1307.6893    114.27475      2204118          147  0.007193656    290.26724    3385.2582 
   22700    1438.6029    120.89586      2204118          147  0.007193656    292.28737    3697.1198 
   22800     1520.866    117.99967      2204118          147  0.007193656    241.59999    3841.1295 
   22900    1373.7114    111.18206      2204118          147  0.007193656    245.68283    3496.9323 
   23000    1270.4669    105.69254      2204118          147  0.007193656    240.26293    3247.1571 
   23100    1380.9762    108.05451      2204118          147  0.007193656    215.48845    3483.9321 
   23200    1475.2465     129.1721      2204118          147  0.007193656    339.88852    3831.4476 
   23300    1444.1979     131.8697      2204118          147  0.007193656    369.68461    3787.7589 
   23400    1381.5895    111.13064      2204118          147  0.007193656    238.19768    3508.0929 
   23500     1304.491    106.93285      2204118          147  0.007193656    237.46653    3324.8877 
   23600    1376.8542    109.41945      2204118          147  0.007193656    229.83691    3488.5248 
   23700    1476.7553    115.30501      2204118          147  0.007193656    238.50789    3733.6378 
   23800    1450.6416    110.53616      2204118          147  0.007193656    211.91413    3645.2393 
   23900    1320.4534    107.66242      2204118          147  0.007193656    237.33579    3362.5362 
   24000    1327.3848    109.67325      2204118          147  0.007193656    248.50069     3390.106 
   24100    1463.1828    115.56443      2204118          147  0.007193656    242.88876     3705.896 
   24200    1484.2451    116.53836      2204118          147  0.007193656    242.56037    3755.4169 
   24300    1364.6526    109.55711      2204118          147  0.007193656    230.99281    3460.8022 
   24400    1302.6014    112.89385      2204118          147  0.007193656      276.417    3359.3661 
   24500    1442.6356    115.30536      2204118          147  0.007193656    243.60452    3657.9814 
   24600    1504.1979    120.53477      2204118          147  0.007193656    259.65382     3819.734 
   24700    1379.4286    121.50772      2204118          147  0.007193656    312.48211    3577.2629 
   24800    1306.4878    117.14156      2204118          147  0.007193656    305.41324    3397.5604 
   24900     1374.121    119.07065      2204118          147  0.007193656     295.1118    3547.3309 
   25000    1457.6566    128.56514      2204118          147  0.007193656    336.68659    3786.6145 
   25100    1453.3921    121.72976      2204118          147  0.007193656    286.43937    3726.2742 
   25200    1344.1416     113.5478      2204118          147  0.007193656    264.79999    3446.0649 
   25300    1322.4415    110.78844      2204118          147  0.007193656    253.95322     3383.859 
   25400    1430.6198     112.0398      2204118          147  0.007193656    224.18059    3610.1189 
   25500    1460.2196    122.80573      2204118          147  0.007193656    293.26589    3749.2599 
   25600      1405.08     122.2892      2204118          147  0.007193656    308.59879    3634.0903 
   25700    1358.1503    115.48381      2204118          147  0.007193656    275.95498    3490.3752 
   25800    1377.8332    113.02214      2204118          147  0.007193656    250.96263    3511.9675 
   25900    1411.5216    121.62692      2204118          147  0.007193656    302.89521    3643.6325 
   26000    1426.4766    128.40737      2204118          147  0.007193656    347.15399    3723.2862 
   26100    1409.5243    124.67629      2204118          147  0.007193656     326.9287    3662.9389 
   26200    1388.6902    113.91482      2204118          147  0.007193656    256.60529    3543.3061 
   26300    1356.7666    113.83764      2204118          147  0.007193656    268.19744    3479.3426 
   26400     1414.851    111.62339      2204118          147  0.007193656    229.72301    3578.3402 
   26500    1432.4796    116.79846      2204118          147  0.007193656    263.69488    3654.0347 
   26600    1387.9831     117.5259      2204118          147  0.007193656     286.4871    3571.5143 
   26700    1365.9107    112.59001      2204118          147  0.007193656    257.31394     3490.101 
   26800    1371.1789    116.32142      2204118          147  0.007193656    281.24812     3526.504 
   26900    1438.2036    116.37091      2204118          147  0.007193656    254.79407    3658.6814 
   27000    1442.1358    117.22509      2204118          147  0.007193656    260.84195    3674.0359 
   27100    1386.8943     111.2468      2204118          147  0.007193656    236.39105    3518.8414 
   27200    1342.0788    112.28066      2204118          147  0.007193656    261.54451    3437.9273 
   27300    1402.4419    113.16449      2204118          147  0.007193656    245.78914    3565.0369 
   27400    1450.7692    116.21771      2204118          147  0.007193656    251.36151    3684.9886 
   27500    1439.6138    107.63804      2204118          147  0.007193656     189.9804    3597.2053 
   27600    1314.4955    117.44394      2204118          147  0.007193656    310.01327    3421.1128 
   27700      1381.45      114.064      2204118          147  0.007193656    260.34151    3529.9064 
   27800    1465.8991    113.52148      2204118          147  0.007193656    225.73719    3695.1732 
   27900    1397.0075    116.67281      2204118          147  0.007193656    273.19471    3579.5805 
   28000    1340.2848    114.00434      2204118          147  0.007193656    272.64351    3444.7803 
   28100    1395.3153    111.95402      2204118          147  0.007193656    239.25705     3541.638 
   28200    1454.3393    114.54235      2204118          147  0.007193656    238.31254    3680.3893 
   28300    1421.8062     110.7157      2204118          147  0.007193656    219.98935     3585.068 
   28400    1328.8511    113.98646      2204118          147  0.007193656    279.11651    3424.1923 
   28500    1361.3574    114.42153      2204118          147  0.007193656    267.73538    3489.7458 
   28600    1440.6982     121.6022      2204118          147  0.007193656    291.42192    3701.2134 
   28700    1482.6501    117.28161      2204118          147  0.007193656    244.30703    3753.3886 
   28800     1368.362    111.90827      2204118          147  0.007193656    247.21763    3485.8065 
   28900    1320.0497    105.69062      2204118          147  0.007193656    219.46281    3343.7078 
   29000    1407.7091    106.28343      2204118          147  0.007193656    194.62742    3526.3414 
   29100    1496.5317    105.78387      2204118          147  0.007193656    160.40714    3702.3433 
   29200    1400.3678    106.79911      2204118          147  0.007193656    203.07598    3517.4149 
   29300    1319.5192    104.05384      2204118          147  0.007193656    211.61473    3334.6042 
   29400    1385.4946     102.4598      2204118          147  0.007193656    176.22965    3455.3672 
   29500     1469.849    105.51022      2204118          147  0.007193656     168.5434    3647.3279 
   29600    1426.9239    106.47382      2204118          147  0.007193656    190.07564    3567.2667 
   29700    1338.0107    108.18609      2204118          147  0.007193656     234.6688    3401.4233 
   29800    1381.9307    104.64113      2204118          147  0.007193656    190.33959    3461.0422 
   29900    1417.8985    115.49006      2204118          147  0.007193656    257.60939    3613.4393 
   30000    1444.7356    116.75129      2204118          147  0.007193656    257.04507    3676.3922 
   30100     1412.954    108.75374      2204118          147  0.007193656    210.69025    3554.8177 
   30200     1359.367     102.0338      2204118          147  0.007193656    181.00542    3398.3051 
   30300    1351.0307    106.67448      2204118          147  0.007193656    218.24786    3415.8176 
   30400    1421.9362    114.90814      2204118          147  0.007193656    252.09827    3617.4845 
   30500    1464.9533    119.07131      2204118          147  0.007193656    267.89134     3735.089 
   30600    1390.9878     116.3103      2204118          147  0.007193656    274.50443    3566.6432 
   30700    1341.5568    108.46356      2204118          147  0.007193656    233.51091    3408.6581 
   30800    1381.6826    106.48701      2204118          147  0.007193656     205.1995    3475.3149 
   30900    1434.3094    111.61095      2204118          147  0.007193656    225.21509    3619.8857 
   31000    1423.3511    115.75189      2204118          147  0.007193656    260.14012    3628.8752 
   31100    1386.1471     111.3223      2204118          147  0.007193656    239.62687    3520.3087 
   31200    1345.1184    112.70365      2204118          147  0.007193656    263.96163    3447.5384 
   31300    1384.0833    118.28323      2204118          147  0.007193656    290.28932    3566.0868 
   31400    1465.7222    120.43168      2204118          147  0.007193656    277.34741    3746.3648 
   31500    1444.8706    114.41032      2204118          147  0.007193656    241.74882    3661.4155 
   31600    1346.2599    108.13867      2204118          147  0.007193656    233.35703    3419.6353 
   31700    1355.4048    101.54935      2204118          147  0.007193656    181.96611    3389.8882 
   31800    1413.1689     107.8675      2204118          147  0.007193656    207.09692    3551.7331 
   31900    1447.7392    114.47305      2204118          147  0.007193656    242.26866    3668.7245 
   32000    1399.9945    116.75204      2204118          147  0.007193656     277.2726    3590.7281 
   32100    1361.0577    110.31492      2204118          147  0.007193656    240.66901    3461.9702 
   32200    1365.8284    114.93919      2204118          147  0.007193656    272.70156     3505.294 
   32300    1450.1492    116.36614      2204118          147  0.007193656    252.02849    3684.1882 
   32400      1441.56    117.13051      2204118          147  0.007193656    260.03912    3671.8702 
   32500    1369.6273    113.26786      2204118          147  0.007193656     255.4744     3497.058 
   32600    1355.5487    112.71903      2204118          147  0.007193656    256.10945    3464.3723 
   32700    1419.5644    116.53157      2204118          147  0.007193656    262.93056    3622.7033 
   32800    1467.0644    112.88205      2204118          147  0.007193656    219.69108     3691.885 
   32900    1375.2472    111.19431      2204118          147  0.007193656    240.30204    3495.1865 
   33000    1335.2598    107.88568      2204118          147  0.007193656    229.48108    3389.7247 
   33100    1394.6787     112.6932      2204118          147  0.007193656    244.31854    3545.1928 
   33200    1464.1507    116.34238      2204118          147  0.007193656    246.92613    3712.2242 
   33300    1421.2149    112.33236      2204118          147  0.007193656     234.2534    3597.9324 
   33400    1348.0384     103.0037      2204118          147  0.007193656    190.21717    3380.7049 
   33500    1338.6769    106.59426      2204118          147  0.007193656    219.61437    3387.9455 
   33600     1435.632    114.18642      2204118          147  0.007193656    240.55937    3638.3602 
   33700    1467.3349     118.7918      2204118          147  0.007193656     264.0633    3736.8975 
   33800     1389.164    112.36077      2204118          147  0.007193656    245.81043    3533.6326 
   33900    1340.7958    102.51318      2204118          147  0.007193656    190.74316    3364.0893 
   34000    1374.6357    101.66827      2204118          147  0.007193656    171.38753    3424.8248 
   34100    1418.5198    113.41522      2204118          147  0.007193656    242.18195    3599.4825 
   34200    1431.2144    118.84267      2204118          147  0.007193656    277.72093    3665.0666 
   34300    1405.1787    111.79645      2204118          147  0.007193656    232.45276    3558.1779 
   34400    1359.2995    110.04295      2204118          147  0.007193656     236.4159    3453.5559 
   34500    1397.6143     107.3585      2204118          147  0.007193656    202.52255    3510.3445 
   34600    1415.7659    114.35236      2204118          147  0.007193656    246.79791    3597.5805 
   34700    1418.7781    119.24828      2204118          147  0.007193656    280.86782    3638.7796 
   34800    1408.1448    118.07379      2204118          147  0.007193656    276.90861    3609.6538 
   34900    1396.1728    112.16285      2204118          147  0.007193656    239.32965    3543.7401 
   35000    1381.5469    110.08116      2204118          147  0.007193656    230.17285    3499.9671 
   35100    1403.0143    108.86236      2204118          147  0.007193656    212.65534    3533.2578 
   35200     1405.491    116.18124      2204118          147  0.007193656     266.8206     3593.285 
   35300    1422.9571    116.32706      2204118          147  0.007193656    260.07629    3627.8788 
   35400    1388.4439    120.13328      2204118          147  0.007193656    300.43554    3586.5534 
   35500    1388.8239    117.54964      2204118          147  0.007193656     277.9727      3564.99 
   35600    1413.6195     121.0044      2204118          147  0.007193656    293.96865    3639.6712 
   35700    1437.6581    123.58184      2204118          147  0.007193656    307.35679    3709.9531 
   35800    1413.1281    116.28241      2204118          147  0.007193656    263.22164    3607.7612 
   35900       1350.8     112.2203      2204118          147  0.007193656    255.85857    3452.8823 
   36000    1338.9979    120.20148      2204118          147  0.007193656    320.03166    3489.1226 
   36100    1465.5682     118.7266      2204118          147  0.007193656    262.70774    3731.3607 
   36200     1468.806    117.27337      2204118          147  0.007193656    254.15296     3730.469 
   36300    1351.8509    108.65558      2204118          147  0.007193656    230.98085    3430.4919 
   36400    1299.6107     112.9994      2204118          147  0.007193656    282.75419     3358.625 
   36500    1448.0236    111.13982      2204118          147  0.007193656    213.45793    3640.5868 
   36600    1478.9448    123.40175      2204118          147  0.007193656    293.43223    3793.7443 
   36700    1412.9527    120.90463      2204118          147  0.007193656    299.38475    3643.5093 
   36800    1346.0163    111.59324      2204118          147  0.007193656    255.16904    3440.8709 
   36900    1366.3676    106.28265      2204118          147  0.007193656    208.86611    3442.7347 
   37000    1420.4172    111.06457      2204118          147  0.007193656    225.59251    3587.3836 
   37100    1432.3412    116.00252      2204118          147  0.007193656    258.55633    3648.5687 
   37200    1410.2045    109.68956      2204118          147  0.007193656    218.56579    3556.1859 
   37300    1367.9695    105.19696      2204118          147  0.007193656    198.21956    3435.8793 
   37400     1349.295    115.07271      2204118          147  0.007193656    276.46538     3469.927 
   37500    1425.8355    124.29649      2204118          147  0.007193656    313.14626    3687.7613 
   37600    1474.6665    127.86211      2204118          147  0.007193656    322.05612    3812.2426 
   37700    1420.5246    115.71078      2204118          147  0.007193656    253.34997    3615.3952 
   37800    1323.5189    107.46743      2204118          147  0.007193656     229.3364    3361.7921 
   37900    1346.5395    107.92586      2204118          147  0.007193656    225.94211    3412.8823 
   38000    1434.7794    119.56048      2204118          147  0.007193656    281.36448    3677.1475 
   38100    1481.8121    119.19036      2204118          147  0.007193656    260.38153    3767.4798 
   38200    1389.5519    109.39259      2204118          147  0.007193656    218.55327    3507.2935 
   38300    1308.0894    107.40896      2204118          147  0.007193656    234.69929    3330.6372 
   38400    1396.0342    104.99656      2204118          147  0.007193656    185.06701    3489.1493 
   38500     1458.483     114.7097      2204118          147  0.007193656    235.22626    3687.1102 
   38600    1412.2197    122.02434      2204118          147  0.007193656    307.18615    3649.5756 
   38700    1388.4171     112.5531      2204118          147  0.007193656    244.92295    3530.9774 
   38800    1359.9878    113.04936      2204118          147  0.007193656    260.33865    3479.1077 
   38900    1398.1126    114.92412      2204118          147  0.007193656    261.55333    3570.5547 
   39000    1440.0979    113.30401      2204118          147  0.007193656    233.28912    3641.6598 
   39100    1394.9325    112.55701      2204118          147  0.007193656    243.36398    3544.8389 
   39200    1367.1876    107.75233      2204118          147  0.007193656    216.54647    3452.3557 
   39300    1371.3894    114.40022      2204118          147  0.007193656    264.35317    3510.1071 
   39400    1436.3983    120.67102      2204118          147  0.007193656    289.73463    3689.3493 
   39500    1452.5524    114.49158      2204118          147  0.007193656    237.78878    3675.6364 
   39600    1342.0808    115.19703      2204118          147  0.007193656    283.81923    3460.2067 
   39700    1360.7837    108.36611      2204118          147  0.007193656    226.12068    3446.7734 
   39800    1431.0193    109.27323      2204118          147  0.007193656     208.3519    3595.2356 
   39900    1436.1538    110.83499      2204118          147  0.007193656    217.31591     3616.352 
   40000      1379.24    111.49626      2204118          147  0.007193656    242.64039     3506.975 
   40100    1377.5988    106.41977      2204118          147  0.007193656    205.01737    3465.4674 
   40200     1389.384    109.48908      2204118          147  0.007193656    223.50227    3511.8453 
   40300    1404.9295    117.54844      2204118          147  0.007193656    278.92663     3604.062 
   40400    1437.8902     114.4151      2204118          147  0.007193656    243.66263    3646.8082 
   40500     1408.269    107.48443      2204118          147  0.007193656    202.26092    3535.3002 
   40600    1349.4203    108.38428      2204118          147  0.007193656    230.18304    3423.9414 
   40700    1377.2522    114.33257      2204118          147  0.007193656    265.61758    3525.2473 
   40800    1469.4204    112.04256      2204118          147  0.007193656    215.93009    3693.7001 
   40900    1419.0751    109.46887      2204118          147  0.007193656    213.44739    3572.0622 
   41000     1323.111     111.6062      2204118          147  0.007193656    264.51125    3396.0017 
   41100    1390.2602     107.5974      2204118          147  0.007193656    210.84463    3501.2614 
   41200    1460.9013    108.74783      2204118          147  0.007193656    194.10879    3651.7162 
   41300    1407.4467    110.84578      2204118          147  0.007193656    227.30264    3558.3958 
   41400    1341.7066    113.04112      2204118          147  0.007193656    267.17388    3442.6755 
   41500    1377.7269    115.38361      2204118          147  0.007193656    271.48038    3532.2336 
   41600    1450.2717    117.21469      2204118          147  0.007193656    259.96675    3692.4165 
   41700    1443.4211    110.69562      2204118          147  0.007193656    213.16253    3629.3984 
   41800    1341.9424    109.66893      2204118          147  0.007193656    241.76148    3417.8214 
   41900    1354.8259    109.23387      2204118          147  0.007193656    231.43265    3437.9846 
   42000    1432.5452    119.10163      2204118          147  0.007193656    275.19704    3665.6923 
   42100    1475.1752    120.96074      2204118          147  0.007193656    272.83402    3764.2244 
   42200     1389.515    116.19559      2204118          147  0.007193656    269.75733    3558.4103 
   42300    1336.3918    108.69355      2204118          147  0.007193656    235.27427    3398.1971 
   42400    1373.2466    111.06394      2204118          147  0.007193656    240.96644     3491.116 
   42500    1463.1161     112.5303      2204118          147  0.007193656    218.97919    3681.8284 
   42600    1457.2636    108.23695      2204118          147  0.007193656     189.8377    3638.8356 
   42700    1326.0218    112.26166      2204118          147  0.007193656    267.19947     3405.579 
   42800    1352.5662    110.49344      2204118          147  0.007193656    243.62783    3444.8317 
   42900    1471.1132    111.26676      2204118          147  0.007193656    207.47883    3689.2553 
   43000    1443.1368    117.74091      2204118          147  0.007193656    267.68634    3683.2495 
   43100    1362.8446    111.16043      2204118          147  0.007193656    247.72535    3473.2557 
   43200     1322.925    111.77094      2204118          147  0.007193656    267.49749    3398.5477 
   43300    1434.4644    107.06429      2204118          147  0.007193656    190.79295    3585.8306 
   43400    1472.3704    107.50352      2204118          147  0.007193656    179.35325    3664.1053 
   43500    1359.5069    113.43054      2204118          147  0.007193656    262.76408     3480.395 
   43600    1346.0963    113.99569      2204118          147  0.007193656    273.37153    3459.2627 
   43700    1441.6932    110.35413      2204118          147  0.007193656    211.65762     3623.804 
   43800     1416.016    117.71618      2204118          147  0.007193656    274.05433    3625.4289 
   43900    1364.0582    123.48452      2204118          147  0.007193656    335.54645    3563.9492 
   44000    1405.8445    117.61552      2204118          147  0.007193656    278.94218    3606.2433 
   44100    1422.7302    114.07645      2204118          147  0.007193656    248.35133    3615.6167 
   44200    1389.3047    112.95203      2204118          147  0.007193656    253.60549    3541.7606 
   44300    1382.6592     107.9519      2204118          147  0.007193656      217.575    3490.0019 
   44400    1373.3589    115.46524      2204118          147  0.007193656    279.84949    3530.2647 
   44500    1456.0424     105.7583      2204118          147  0.007193656    176.96667    3623.0741 
   44600    1397.0507    107.79153      2204118          147  0.007193656    213.53228    3520.0205 
   44700    1346.7525    108.63228      2204118          147  0.007193656    237.06621    3424.5105 
   44800    1400.2632     109.1854      2204118          147  0.007193656    220.86984    3534.9613 
   44900    1456.7183    111.37056      2204118          147  0.007193656    215.47613    3663.1834 
   45000    1418.5253    112.17495      2204118          147  0.007193656    236.44228    3593.7556 
   45100    1372.7261    104.93855      2204118          147  0.007193656    200.31058    3449.2282 
   45200    1338.8529    109.72886      2204118          147  0.007193656    246.81665    3415.5643 
   45300    1399.9534    118.19433      2204118          147  0.007193656    285.79659    3599.1547 
   45400    1485.6576     115.9028      2204118          147  0.007193656    237.73688    3753.9365 
   45500    1425.6737     105.5202      2204118          147  0.007193656    182.35608    3556.5881 
   45600    1294.9825    106.88023      2204118          147  0.007193656    240.31806     3305.235 
   45700    1364.5342    105.23479      2204118          147  0.007193656    200.25956    3429.7888 
   45800    1459.1445     117.7912      2204118          147  0.007193656    257.59699    3711.0465 
   45900    1460.1864    124.16769      2204118          147  0.007193656    302.83763     3758.753 
   46000    1390.4356    117.66642      2204118          147  0.007193656    281.70843    3572.5402 
   46100    1345.2479    107.65452      2204118          147  0.007193656    226.62735    3410.5106 
   46200    1372.2197    105.61376      2204118          147  0.007193656    203.93897     3451.658 
   46300    1429.7032    111.88915      2204118          147  0.007193656    231.42621    3615.1951 
   46400    1459.5941    108.26304      2204118          147  0.007193656    193.55021    3648.0638 
   46500    1370.6522    107.57266      2204118          147  0.007193656    221.72605    3465.7352 
   46600    1355.0298    101.49141      2204118          147  0.007193656    180.45304    3387.4876 
   46700    1385.7921    109.90348      2204118          147  0.007193656    231.45145    3511.2933 
   46800    1444.3034    119.78948      2204118          147  0.007193656    284.44424    3702.7683 
   46900     1450.781    115.14132      2204118          147  0.007193656    244.31176    3677.9667 
   47000     1362.623     113.5733      2204118          147  0.007193656    263.81394    3488.8198 
   47100    1364.3714    108.32134      2204118          147  0.007193656    222.72794    3451.8718 
   47200    1398.6277    116.99039      2204118          147  0.007193656    275.14723    3585.3677 
   47300    1467.6844    113.20948      2204118          147  0.007193656    221.00408    3694.6655 
   47400    1375.8145    117.46711      2204118          147  0.007193656    284.80826    3541.0355 
   47500    1350.5689    113.45622      2204118          147  0.007193656    264.07384    3460.5505 
   47600    1395.6869    117.21901      2204118          147  0.007193656    276.05887    3579.3192 
   47700    1462.3438    118.90357      2204118          147  0.007193656    263.39282    3724.4142 
   47800    1429.2085     118.6822      2204118          147  0.007193656     272.9748    3655.5727 
   47900    1363.2347    115.17525      2204118          147  0.007193656     271.1868    3497.6406 
   48000    1359.7813    114.71144      2204118          147  0.007193656    268.94114    3487.2216 
   48100    1426.8234    120.62667      2204118          147  0.007193656    289.22006    3666.1731 
   48200    1465.8082    121.19195      2204118          147  0.007193656    280.60908      3749.83 
   48300    1395.8835    111.75066      2204118          147  0.007193656    236.91532     3540.641 
   48400    1337.2103    103.90033      2204118          147  0.007193656    201.14591    3366.0059 
   48500    1364.4155    108.41455      2204118          147  0.007193656    224.79895    3454.0472 
   48600    1454.4868    115.55367      2204118          147  0.007193656     244.6098    3687.0355 
   48700     1469.892    112.32633      2204118          147  0.007193656    212.98861    3691.8749 
   48800    1341.6497    114.08347      2204118          147  0.007193656    273.39601     3448.763 
   48900    1350.5031    109.37596      2204118          147  0.007193656    236.37444    3432.6954 
   49000    1444.5818     109.4166      2204118          147  0.007193656    205.18763    3624.1706 
   49100    1437.9955    113.00813      2204118          147  0.007193656    233.98998    3637.3848 
   49200    1363.4279    115.74303      2204118          147  0.007193656    279.13311    3506.0441 
   49300    1381.1074    113.80307      2204118          147  0.007193656    256.66663    3525.4209 
   49400     1426.129    114.44407      2204118          147  0.007193656    244.05387    3619.3635 
   49500    1403.8303    119.84995      2204118          147  0.007193656    292.02709    3614.5609 
   49600    1378.8013    119.40708      2204118          147  0.007193656    296.32108    3559.6173 
   49700    1385.8889    118.55571      2204118          147  0.007193656      287.964    3568.0347 
   49800    1412.9637    117.54083      2204118          147  0.007193656    270.93053     3615.081 
   49900    1410.3106    115.65914      2204118          147  0.007193656    258.75882    3596.6301 
   50000    1392.7802    113.27195      2204118          147  0.007193656    248.36371    3544.7446 
   50100    1377.1185    113.98988      2204118          147  0.007193656    259.84088    3519.1541 
   50200    1411.6294    110.70617      2204118          147  0.007193656    223.13351     3564.126 
   50300    1418.6919    111.29321      2204118          147  0.007193656     224.7028    3582.4105 
   50400    1386.4534    114.96998      2204118          147  0.007193656    264.31825    3545.7252 
   50500    1396.5771    112.58837      2204118          147  0.007193656    242.08823    3547.4554 
   50600    1405.3547    114.58589      2204118          147  0.007193656    254.63366    3580.7753 
   50700    1407.2489     116.4173      2204118          147  0.007193656      268.971    3599.5958 
   50800    1397.0557    116.15051      2204118          147  0.007193656    271.54416    3578.0442 
   50900    1381.9608    114.61094      2204118          147  0.007193656    265.46919    3536.2432 
   51000    1379.8769    115.07136      2204118          147  0.007193656    270.84442    3536.6861 
   51100    1414.7057    111.99146      2204118          147  0.007193656    234.98462     3583.258 
   51200    1408.7985    112.47138      2204118          147  0.007193656    239.49252     3573.785 
   51300    1387.3095    110.55177      2204118          147  0.007193656    230.63338    3514.0663 
   51400    1377.5331    112.93465      2204118          147  0.007193656    249.46881    3509.7634 
   51500    1401.0438    121.83572      2204118          147  0.007193656    308.27937    3624.2182 
   51600     1454.584    120.13787      2204118          147  0.007193656    277.68437    3720.3403 
   51700    1417.3841    110.88395      2204118          147  0.007193656    224.66833    3579.2808 
   51800    1343.4229    103.80228      2204118          147  0.007193656    199.82115     3379.385 
   51900    1357.3334    105.52629      2204118          147  0.007193656    208.09888    3420.5855 
   52000    1434.1656    115.00334      2204118          147  0.007193656     251.6413    3645.9717 
   52100    1466.1415     115.2651      2204118          147  0.007193656    241.56997    3711.5796 
   52200    1383.3155    109.20273      2204118          147  0.007193656    225.98379    3499.9639 
   52300    1324.6854    108.50153      2204118          147  0.007193656    243.35347    3378.5701 
   52400    1425.9078    100.98282      2204118          147  0.007193656    149.20603    3523.9922 
   52500    1429.1115    112.38596      2204118          147  0.007193656    232.58209    3614.9506 
   52600    1402.0064    113.63894      2204118          147  0.007193656    248.92117    3567.1384 
   52700    1367.5362    115.02015      2204118          147  0.007193656    269.64408    3506.2784 
   52800    1384.1367    119.88659      2204118          147  0.007193656    299.23368    3575.1576 
   52900    1460.8282    116.88178      2204118          147  0.007193656    246.47046    3703.9049 
   53000    1417.3281    123.56611      2204118          147  0.007193656     312.5785    3667.0584 
   53100    1394.1804     116.3451      2204118          147  0.007193656    267.11511    3566.8099 
   53200    1375.9102    110.91371      2204118          147  0.007193656    234.97375    3491.4274 
   53300     1383.954    110.65955      2204118          147  0.007193656    231.17812    3506.6696 
   53400    1422.6025    111.01701      2204118          147  0.007193656    219.96641    3586.9297 
   53500    1403.8919    115.83083      2204118          147  0.007193656     262.0163     3584.696 
   53600    1374.6532    120.71993      2204118          147  0.007193656    310.10553     3563.584 
   53700    1439.6478    111.43088      2204118          147  0.007193656    218.06846     3625.374 
   53800    1415.0188    108.85609      2204118          147  0.007193656     209.4603    3558.4747 
   53900    1342.8162    110.94505      2204118          147  0.007193656    249.11499    3427.2429 
   54000    1337.3791    124.85946      2204118          147  0.007193656    354.02686    3519.2864 
   54100     1466.054    123.17744      2204118          147  0.007193656    294.73148     3764.534 
   54200    1467.7962    115.54458      2204118          147  0.007193656    240.89347    3714.8195 
   54300    1353.3874    108.87025      2204118          147  0.007193656    235.92261    3439.0701 
   54400    1333.1386    107.85301      2204118          147  0.007193656    235.53742    3390.7608 
   54500    1425.5118    110.76169      2204118          147  0.007193656    223.76384    3597.6126 
   54600    1452.0145    116.20373      2204118          147  0.007193656    256.16163    3692.7361 
   54700    1400.4619    109.84486      2204118          147  0.007193656    226.90707    3541.4688 
   54800    1356.6845    104.82116      2204118          147  0.007193656    204.39321    3415.3441 
   54900    1384.1037    107.89913      2204118          147  0.007193656    217.11416    3492.9599 
   55000    1444.7089    114.32235      2204118          147  0.007193656    242.67173    3661.9555 
   55100    1447.4217    108.87694      2204118          147  0.007193656    201.73342    3627.4377 
   55200    1364.4008    104.35234      2204118          147  0.007193656    199.43076    3428.6444 
   55300    1371.4998    103.77542      2204118          147  0.007193656    192.95157    3438.9668 
   55400    1410.3574    104.01728      2204118          147  0.007193656    179.08528    3517.0672 
   55500    1396.7064    113.67843      2204118          147  0.007193656    255.14455    3560.8179 
   55600    1433.0349    115.64749      2204118          147  0.007193656    256.19253    3647.8467 
   55700    1496.5992      111.498      2204118          147  0.007193656    202.56775    3744.6635 
   55800    1388.8774    108.15395      2204118          147  0.007193656    217.35841    3504.5022 
   55900    1373.6632    103.39442      2204118          147  0.007193656    186.95152    3438.0871 
   56000    1399.3036    108.49107      2204118          147  0.007193656     216.6064    3528.4265 
   56100    1453.1639    110.76319      2204118          147  0.007193656    211.89801    3651.1928 
   56200    1405.7967    114.36986      2204118          147  0.007193656    255.43947    3582.6274 
   56300    1326.8353    106.44514      2204118          147  0.007193656     223.5228    3363.8277 
   56400    1348.6456    113.90709      2204118          147  0.007193656    269.77618    3461.7009 
   56500    1406.7454    120.64284      2204118          147  0.007193656    297.89779    3627.3311 
   56600    1429.0537    117.64936      2204118          147  0.007193656    266.70775    3648.9394 
   56700    1386.3066    115.42653      2204118          147  0.007193656    266.88631    3547.9457 
   56800    1362.4076     105.4687      2204118          147  0.007193656    202.26321    3426.7592 
   56900    1328.0836    108.83525      2204118          147  0.007193656    242.09986    3385.3592 
   57000    1431.5012    113.04005      2204118          147  0.007193656     234.7672    3622.7914 
   57100    1454.3604     113.7401      2204118          147  0.007193656    232.71375    3674.8404 
   57200     1378.486    110.29968      2204118          147  0.007193656    235.60055    3498.1504 
   57300    1343.2806    113.43219      2204118          147  0.007193656    272.49593     3451.723 
   57400     1413.792    110.47908      2204118          147  0.007193656    221.53531    3567.6462 
   57500    1397.0871    122.48125      2204118          147  0.007193656    317.33965    3623.9138 
   57600    1434.1404    114.02386      2204118          147  0.007193656    240.61006    3634.8807 
   57700    1415.9191    108.19992      2204118          147  0.007193656     205.4497    3556.5949 
   57800    1373.8761     108.1489      2204118          147  0.007193656    221.59123    3473.2306 
   57900     1389.505    107.17149      2204118          147  0.007193656    209.83025    3498.4596 
   58000    1436.2286     116.3209      2204118          147  0.007193656    260.39022    3659.6032 
   58100    1485.6003     116.8986      2204118          147  0.007193656    242.50119    3758.5654 
   58200    1339.1515    124.34769      2204118          147  0.007193656    351.27703    3520.7314 
   58300     1383.985    109.20212      2204118          147  0.007193656     221.4792    3497.0439 
   58400    1404.9353    109.08649      2204118          147  0.007193656    215.16952    3540.3186 
   58500    1425.2227    104.82448      2204118          147  0.007193656    176.44958    3549.6143 
   58600    1325.4686    107.41586      2204118          147  0.007193656    232.13457    3369.2049 
   58700     1331.652    103.94764      2204118          147  0.007193656    202.59658    3354.3016 
   58800    1408.1649    113.71724      2204118          147  0.007193656    247.09778    3579.8907 
   58900    1409.2012    118.10934      2204118          147  0.007193656    280.55531    3615.8009 
   59000    1416.1177    108.34005      2204118          147  0.007193656    205.37212    3556.9873 
   59100    1348.2315    105.21104      2204118          147  0.007193656    207.54389    3398.4886 
   59200    1363.4018    101.50295      2204118          147  0.007193656     174.0611    3400.9103 
   59300    1447.8488    116.59239      2204118          147  0.007193656    256.45086     3683.166 
   59400    1441.8111    114.47524      2204118          147  0.007193656    239.48978    3651.9152 
   59500    1337.9424     125.6224      2204118          147  0.007193656    361.60559    3528.1983 
   59600    1419.2814    114.03033      2204118          147  0.007193656    245.10574    3604.2087 
   59700    1422.0435    124.39493      2204118          147  0.007193656    321.27673     3686.917 
   59800    1462.5155    127.81828      2204118          147  0.007193656    331.33233    3792.7601 
   59900    1438.2255    112.26626      2204118          147  0.007193656     224.0527    3627.9918 
   60000    1355.8428     110.8616      2204118          147  0.007193656    243.15753    3452.1164 
   60100    1379.8904    115.62863      2204118          147  0.007193656    269.13216    3535.0059 
   60200    1437.4312    120.49278      2204118          147  0.007193656    285.69348    3687.7527 
   60300    1423.9424    117.52586      2204118          147  0.007193656    270.41918    3640.5537 
   60400    1377.7169    110.87185      2204118          147  0.007193656    238.47205    3499.2017 
   60500    1380.4256    107.53561      2204118          147  0.007193656    214.58758    3481.7281 
   60600    1381.9658    110.65219      2204118          147  0.007193656    236.29826     3507.084 
   60700    1390.6208    118.40393      2204118          147  0.007193656    290.04842    3581.3185 
   60800    1454.4176    115.37353      2204118          147  0.007193656    242.67149    3684.9335 
   60900    1389.6038    115.88744      2204118          147  0.007193656    271.60642    3560.4694 
   61000    1295.5866    118.26472      2204118          147  0.007193656    326.97304    3393.3198 
   61100    1412.3849    106.06795      2204118          147  0.007193656    194.36016    3537.1407 
   61200    1405.8247    109.88449      2204118          147  0.007193656    226.98054    3554.2347 
   61300    1391.1884     112.1707      2204118          147  0.007193656    249.05043     3541.664 
   61400    1423.5972    105.40479      2204118          147  0.007193656    185.40218    3554.7196 
   61500    1336.4194    111.03099      2204118          147  0.007193656    258.87479     3421.863 
   61600    1351.4762     108.1403      2204118          147  0.007193656    230.41708    3429.0412 
   61700    1428.6147    114.04189      2204118          147  0.007193656    246.40961    3627.6023 
   61800    1415.2438    120.14695      2204118          147  0.007193656    295.37242    3644.9193 
   61900    1397.7763    114.14306      2204118          147  0.007193656    256.33743    3564.5429 
   62000    1313.1323    106.52856      2204118          147  0.007193656    230.44528    3338.3185 
   62100    1322.2258    108.49529      2204118          147  0.007193656    243.35772     3372.753 
   62200    1408.2883    108.67793      2204118          147  0.007193656    214.23991    3547.3248 
   62300     1403.207    112.91989      2204118          147  0.007193656    249.69742    3570.7562 
   62400    1411.4259    110.40648      2204118          147  0.007193656     229.7237    3570.2344 
   62500    1396.5045    105.51723      2204118          147  0.007193656     198.5292    3503.7245 
   62600    1343.5804     102.1744      2204118          147  0.007193656     190.3015    3370.2382 
   62700    1352.2915     114.2363      2204118          147  0.007193656    278.10695    3478.6606 
   62800     1437.104    115.52702      2204118          147  0.007193656    255.65001    3656.9349 
   62900    1412.7998    112.97288      2204118          147  0.007193656    243.46992    3587.2324 
   63000     1355.263    114.40278      2204118          147  0.007193656    275.50302    3483.0896 
   63100    1400.2159    109.42731      2204118          147  0.007193656    219.76397    3533.7435 
   63200    1493.4297    114.43929      2204118          147  0.007193656    222.45499    3757.0494 
   63300     1434.623    116.35972      2204118          147  0.007193656    258.58353    3653.9965 
   63400    1374.7582    111.08596      2204118          147  0.007193656     240.0112    3493.7383 
   63500    1372.5771    114.58906      2204118          147  0.007193656    264.98072    3513.5456 
   63600    1418.4666    119.12132      2204118          147  0.007193656    282.06115    3639.2357 
   63700    1433.7135    123.24115      2204118          147  0.007193656    309.19075    3702.4512 
   63800    1387.1776    107.74881      2204118          147  0.007193656    211.78241    3494.9033 
   63900    1317.6582    106.53481      2204118          147  0.007193656    229.50228    3348.0872 
   64000     1401.941    107.94327      2204118          147  0.007193656    208.57499    3526.6374 
   64100    1412.4743     117.6669      2204118          147  0.007193656    277.48381    3620.4759 
   64200    1410.3726    118.12468      2204118          147  0.007193656    280.67943    3618.6973 
   64300    1392.2314    108.53123      2204118          147  0.007193656    214.48221    3509.5642 
   64400    1319.6987    103.96937      2204118          147  0.007193656    206.77671     3330.191 
   64500    1374.4947     109.1828      2204118          147  0.007193656    224.52064     3477.624 
   64600    1424.7445    115.04492      2204118          147  0.007193656    250.05148    3622.0844 
   64700    1420.1271    112.24523      2204118          147  0.007193656    231.13638    3592.2409 
   64800    1368.4798     114.4414      2204118          147  0.007193656    267.80459    3506.6721 
   64900    1398.7013    105.09351      2204118          147  0.007193656    188.04529      3498.44 
   65000    1406.5765    109.13729      2204118          147  0.007193656    217.22759    3546.2612 
   65100    1416.5851    113.34368      2204118          147  0.007193656    244.97483    3597.6963 
   65200    1401.6199     109.2434      2204118          147  0.007193656    219.14519    3536.4475 
   65300    1345.3694    106.44998      2204118          147  0.007193656    218.37991    3402.5508 
   65400    1394.9963    102.48065      2204118          147  0.007193656    170.59348    3472.2194 
   65500     1438.606    117.65295      2204118          147  0.007193656    269.31048    3674.1502 
   65600    1431.9051    117.10616      2204118          147  0.007193656    265.91624    3654.8966 
   65700    1389.4253    113.20658      2204118          147  0.007193656    252.44129    3540.8819 
   65800    1396.1211    109.96837      2204118          147  0.007193656    226.84807    3531.1362 
   65900    1404.0996    108.20145      2204118          147  0.007193656    212.78358    3535.9548 
   66000    1398.0249    104.16828      2204118          147  0.007193656     182.9384    3491.7323 
   66100    1338.7385    111.70162      2204118          147  0.007193656    260.14177    3428.6188 
   66200    1425.3944    113.60968      2204118          147  0.007193656    240.46639    3614.0374 
   66300    1463.0245    116.64177      2204118          147  0.007193656    248.65706    3711.2895 
   66400    1411.1855    109.79882      2204118          147  0.007193656    217.47908    3557.4209 
   66500    1380.1936    104.94714      2204118          147  0.007193656    193.40501    3459.9964 
   66600    1365.3543    113.77491      2204118          147  0.007193656    264.61806    3496.0883 
   66700    1410.3616    116.44624      2204118          147  0.007193656    266.01088    3604.0028 
   66800    1421.8715    116.87809      2204118          147  0.007193656    264.48263    3629.7156 
   66900    1377.1141    118.25542      2204118          147  0.007193656    292.14595    3551.4489 
   67000    1308.7022    110.56117      2204118          147  0.007193656    260.69793    3358.0861 
   67100     1333.149     107.4113      2204118          147  0.007193656    230.05891    3385.3069 
   67200    1427.8304    110.20857      2204118          147  0.007193656     217.7641    3597.1006 
   67300    1419.2145    109.99306      2204118          147  0.007193656    219.38128     3578.326 
   67400    1367.5735      108.484      2204118          147  0.007193656    224.96117    3461.6837 
   67500    1363.4618    109.61766      2204118          147  0.007193656    233.34919    3460.3404 
   67600    1462.0461    119.30678      2204118          147  0.007193656    270.62094    3730.9378 
   67700    1466.6445    112.59485      2204118          147  0.007193656    219.46413    3690.6643 
   67800    1393.9583    107.85023      2204118          147  0.007193656    211.28738    3510.4567 
   67900    1374.6432    109.12619      2204118          147  0.007193656    228.69511    3482.1499 
   68000    1419.7374    108.60185      2204118          147  0.007193656    209.49893    3569.6811 
   68100    1461.5352    107.07783      2204118          147  0.007193656    182.07384    3641.1816 
   68200    1347.3968    111.75773      2204118          147  0.007193656    258.36498    3447.3341 
   68300    1332.4269    110.57264      2204118          147  0.007193656    253.73713     3407.276 
   68400    1415.7566    114.81764      2204118          147  0.007193656    254.40935      3605.17 
   68500    1416.4275    120.64915      2204118          147  0.007193656    299.20012    3651.5486 
   68600    1408.3865    113.87016      2204118          147  0.007193656    251.51959     3584.837 
   68700    1379.5794    108.18001      2204118          147  0.007193656     218.7383     3483.876 
   68800    1332.9228    109.05759      2204118          147  0.007193656    241.40278    3396.1154 
   68900    1350.3542    110.96041      2204118          147  0.007193656    248.01859    3443.9873 
   69000    1424.7476    119.04819      2204118          147  0.007193656    278.44734    3650.4875 
   69100    1445.0597    120.91653      2204118          147  0.007193656     282.5246    3702.6387 
   69200    1391.8315    119.47806      2204118          147  0.007193656    292.78541     3586.921 
   69300    1357.0918     110.3414      2204118          147  0.007193656    237.35779    3449.2727 
   69400    1391.9316    113.01458      2204118          147  0.007193656    246.27403    3540.6465 
   69500    1474.1963    122.38743      2204118          147  0.007193656     285.7016    3774.7751 
   69600    1426.2115    119.23116      2204118          147  0.007193656    278.87509    3654.3799 
   69700     1402.359    110.21567      2204118          147  0.007193656    220.43041     3539.482 
   69800    1383.5277    109.49351      2204118          147  0.007193656    222.41799    3496.9004 
   69900    1394.5139    113.10165      2204118          147  0.007193656    244.09418    3544.5784 
   70000    1504.6975    116.97968      2204118          147  0.007193656    232.97006    3794.2327 
   70100    1462.2689    113.45027      2204118          147  0.007193656     222.2286    3683.0728 
   70200    1360.8397    121.14934      2204118          147  0.007193656    318.81778     3539.603 
   70300    1411.4002    111.74911      2204118          147  0.007193656    231.06535    3571.5154 
   70400    1394.3994    114.31913      2204118          147  0.007193656    256.63567    3556.8487 
   70500    1372.4948    112.18202      2204118          147  0.007193656    247.19291    3495.5632 
   70600    1362.2437    117.46187      2204118          147  0.007193656    290.84184      3514.95 
   70700    1465.8363    117.72565      2204118          147  0.007193656    254.79109    3724.0784 
   70800    1454.0104    113.09999      2204118          147  0.007193656    224.81703    3666.1154 
   70900    1361.1201    116.13837      2204118          147  0.007193656      282.229     3503.678 
   71000    1386.5302    113.98622      2204118          147  0.007193656    259.18299    3540.7716 
   71100    1439.2099    106.59025      2204118          147  0.007193656    185.12091      3591.39 
   71200    1369.9469    109.76969      2204118          147  0.007193656    233.37455    3475.7145 
   71300    1272.1572    111.26464      2204118          147  0.007193656    279.69676    3290.5915 
   71400    1391.0754    111.35643      2204118          147  0.007193656    236.86255    3529.2086 
   71500    1424.2646    115.55194      2204118          147  0.007193656    256.89746    3627.7945 
   71600    1427.1337    111.26567      2204118          147  0.007193656    223.66615    3601.3536 
   71700    1361.2586    108.82262      2204118          147  0.007193656    229.25252    3451.0293 
   71800    1360.9987     109.1728      2204118          147  0.007193656    232.18916    3453.3509 
   71900    1455.9597    113.04592      2204118          147  0.007193656    227.23776    3673.1495 
   72000    1459.6831    110.75288      2204118          147  0.007193656    209.05813    3663.7824 
   72100    1401.1437    112.21226      2204118          147  0.007193656    241.36082    3557.5361 
   72200      1400.97    105.15763      2204118          147  0.007193656     188.7123    3504.4766 
   72300    1374.2353     105.9488      2204118          147  0.007193656     204.0907    3456.5802 
   72400    1392.6289    114.68693      2204118          147  0.007193656    263.43037    3559.4531 
   72500    1492.5348    111.96703      2204118          147  0.007193656    205.83675    3738.3131 
   72600    1391.3007    116.45055      2204118          147  0.007193656    274.83337    3567.7127 
   72700    1396.3957    109.25096      2204118          147  0.007193656    218.35517    3523.2932 
   72800      1392.26    110.56067      2204118          147  0.007193656    230.90865    3526.0585 
   72900    1405.4789    112.33218      2204118          147  0.007193656    239.44831    3565.8841 
   73000    1476.3203    116.19995      2204118          147  0.007193656    244.28088    3738.3814 
   73100    1450.2301    111.79052      2204118          147  0.007193656    221.61476     3653.966 
   73200    1367.8585    106.46961      2204118          147  0.007193656    212.18553    3449.5827 
   73300    1372.9342    110.30899      2204118          147  0.007193656    237.32495    3486.7352 
   73400    1425.8217    114.71138      2204118          147  0.007193656    250.13959     3624.722 
   73500    1431.4034    112.47445      2204118          147  0.007193656    229.77244    3617.5653 
   73600    1320.3654    112.09643      2204118          147  0.007193656    267.02958    3392.0218 
   73700    1324.7023    107.17682      2204118          147  0.007193656    231.03979    3366.2964 
   73800    1472.9914    107.11288      2204118          147  0.007193656    177.63234    3663.8541 
   73900    1397.0398    112.70247      2204118          147  0.007193656    246.26474    3552.7271 
   74000    1365.6617    108.73747      2204118          147  0.007193656    226.67104    3458.8688 
   74100    1399.2094    108.17377      2204118          147  0.007193656    210.98441    3522.5817 
   74200    1454.2403    112.82151      2204118          147  0.007193656    226.00084    3667.8432 
   74300    1455.4062    110.03364      2204118          147  0.007193656    204.60001    3649.2019 
   74400    1329.3197    109.54224      2204118          147  0.007193656    246.28012     3392.465 
   74500    1359.4362    113.24092      2204118          147  0.007193656    260.33193    3477.7956 
   74600    1434.4118    113.96777      2204118          147  0.007193656    237.23563    3632.1486 
   74700    1434.8967    112.00294      2204118          147  0.007193656     223.4268    3619.4875 
   74800    1361.0706    113.58902      2204118          147  0.007193656    262.23332    3483.5651 
   74900    1385.8189    107.59443      2204118          147  0.007193656     207.5049      3487.41 
   75000    1475.0553    122.54654      2204118          147  0.007193656    288.84778    3779.9545 
   75100    1437.6964    121.87854      2204118          147  0.007193656    296.38427    3699.0711 
   75200    1383.6333    115.22795      2204118          147  0.007193656    267.46995    3542.2024 
   75300    1387.2732    110.06468      2204118          147  0.007193656    228.88694    3512.2341 
   75400    1401.4699    110.46839      2204118          147  0.007193656     227.0601    3544.0074 
   75500    1445.8735    116.34703      2204118          147  0.007193656    254.33163    3676.3717 
   75600    1440.9872    127.37285      2204118          147  0.007193656    339.40732    3749.8829 
   75700    1411.1485    111.03511      2204118          147  0.007193656    227.03571      3566.89 
   75800    1360.1605    106.33024      2204118          147  0.007193656    210.34088    3429.5187 
   75900    1360.1774    115.99531      2204118          147  0.007193656    282.25859    3501.4765 
[...]
  381700    1398.5461    110.08513      2204118          147  0.007193656    225.31111    3535.3386 
  381800    1360.0759    108.96063      2204118          147  0.007193656    229.69037     3448.668 
  381900    1342.3549    115.39326      2204118          147  0.007193656    286.11037    3463.1465 
  382000    1461.6786    111.81492      2204118          147  0.007193656    215.31073    3674.7577 
  382100    1397.8796    122.89313      2204118          147  0.007193656    322.77258    3631.2225 
  382200    1393.3834    109.21368      2204118          147  0.007193656    221.19978    3519.0084 
  382300    1335.0071    104.23872      2204118          147  0.007193656    205.49971    3365.1454 
  382400    1289.4583    108.56358      2204118          147  0.007193656    253.86333    3305.7058 
  382500    1427.7857    109.78984      2204118          147  0.007193656    210.22596    3589.4566 
  382600    1404.3865    119.59138      2204118          147  0.007193656    289.53944    3613.3898 
  382700     1389.511    119.54043      2204118          147  0.007193656     294.0459    3582.6894 
  382800    1391.6137    118.02532      2204118          147  0.007193656    283.70764    3577.3278 
  382900    1393.0095    116.89935      2204118          147  0.007193656    275.41997    3572.3436 
  383000    1428.7078    110.09441      2204118          147  0.007193656    213.08434    3594.4972 
  383100    1400.6675    109.69054      2204118          147  0.007193656    222.00834    3537.0566 
  383200    1367.4193    102.44208      2204118          147  0.007193656    178.72998    3415.0877 
  383300    1355.5848    106.30142      2204118          147  0.007193656    211.70998    3420.0582 
  383400    1444.5045    113.76936      2204118          147  0.007193656    236.24691    3655.0471 
  383500    1449.3441    109.36184      2204118          147  0.007193656    200.89647    3631.1506 
  383600    1381.9548    109.18951      2204118          147  0.007193656    224.33518    3495.0949 
  383700    1369.4678    113.12885      2204118          147  0.007193656    257.66876    3498.8747 
  383800    1421.7193    111.36052      2204118          147  0.007193656    224.35204    3589.2248 
  383900    1410.5398    113.98795      2204118          147  0.007193656    247.74402    3586.1576 
  384000     1356.636     115.0823      2204118          147  0.007193656    274.68371    3485.5197 
  384100    1283.1148    114.56939      2204118          147  0.007193656    298.52105      3335.35 
  384200    1395.3772    113.65909      2204118          147  0.007193656    251.35411    3553.8814 
  384300    1440.2263    115.36907      2204118          147  0.007193656    247.63661    3656.3111 
  384400    1405.1632     113.7248      2204118          147  0.007193656    250.21828    3575.9068 
  384500    1370.1418    102.74129      2204118          147  0.007193656    182.40765    3425.2089 
  384600    1356.6655    102.79663      2204118          147  0.007193656    188.26758    3399.1736 
  384700    1459.9905    115.76341      2204118          147  0.007193656    246.12825    3701.5799 
  384800    1438.7288    121.51485      2204118          147  0.007193656    297.17815    3702.3085 
  384900     1392.345    112.32776      2204118          147  0.007193656    245.04468    3540.3956 
  385000    1377.0878     107.1909      2204118          147  0.007193656     212.5824    3471.8231 
  385100    1384.9324    115.28655      2204118          147  0.007193656     271.4944    3549.3013 
  385200    1497.8173    118.18192      2204118          147  0.007193656    251.14431    3796.1231 
  385300     1463.724    112.28091      2204118          147  0.007193656    220.55366    3684.8418 
  385400    1403.8668    105.15732      2204118          147  0.007193656    191.22997    3513.8503 
  385500    1381.1916    106.81027      2204118          147  0.007193656    213.55896    3482.5124 
  385600    1396.6152    105.53345      2204118          147  0.007193656    196.73027    3502.1878 
  385700    1420.0749    106.55407      2204118          147  0.007193656     192.8008    3553.7817 
  385800     1387.659    119.34868      2204118          147  0.007193656    299.87978    3584.1401 
  385900    1449.6531    109.49609      2204118          147  0.007193656    201.04472    3632.0303 
  386000    1389.7133    111.23616      2204118          147  0.007193656    236.91546    3526.0377 
  386100    1353.1649     103.3009      2204118          147  0.007193656    191.23033    3393.8511 
  386200    1372.6576    107.68359      2204118          147  0.007193656    218.41231    3467.1677 
  386300    1458.2735    112.88099      2204118          147  0.007193656    226.34744    3677.7355 
  386400    1434.0029    111.56083      2204118          147  0.007193656    225.24903    3619.1942 
  386500    1370.8315    114.65852      2204118          147  0.007193656     272.0955    3516.5291 
  386600    1375.6244    116.48874      2204118          147  0.007193656    284.00731    3539.7845 
  386700    1425.5244    111.69354      2204118          147  0.007193656    230.05602    3603.9347 
  386800    1405.5893    111.04979      2204118          147  0.007193656    232.43516    3559.1322 
  386900     1307.777    105.15601      2204118          147  0.007193656     223.1169    3318.3153 
  387000    1296.0923    103.22961      2204118          147  0.007193656     212.0978    3279.6413 
  387100    1379.6108    111.49542      2204118          147  0.007193656    243.99279    3509.2049 
  387200    1409.7198    119.32639      2204118          147  0.007193656    292.73776    3629.2107 
  387300    1452.7532    110.82423      2204118          147  0.007193656    213.83202    3652.1547 
  387400    1380.2064     104.2843      2204118          147  0.007193656    193.13834      3459.76 
  387500    1348.2465    104.74123      2204118          147  0.007193656    207.55367    3398.5339 
  387600    1383.7699    112.79361      2204118          147  0.007193656    253.05187    3528.1076 
  387700    1418.5013    112.65375      2204118          147  0.007193656    237.73271    3594.9893 
  387800    1396.0797    116.93842      2204118          147  0.007193656    276.84227    3581.0322 
  387900    1396.0885     115.1404      2204118          147  0.007193656    261.79042    3566.0013 
  388000     1379.838    111.76207      2204118          147  0.007193656    242.65109    3508.4008 
  388100    1351.9462    109.46156      2204118          147  0.007193656    234.87477    3434.6112 
  388200    1395.6835    111.95659      2204118          147  0.007193656    235.78973    3539.0421 
  388300    1452.4618    117.56623      2204118          147  0.007193656    256.99892     3694.632 
  388400    1419.0549    117.57032      2204118          147  0.007193656    270.34677    3628.9138 
  388500    1364.0273    107.23409      2204118          147  0.007193656    215.89136     3444.221 
  388600    1344.8994    103.10122      2204118          147  0.007193656    192.18964     3375.248 
  388700    1462.4482    111.22652      2204118          147  0.007193656    208.56007    3669.8287 
  388800     1442.545    119.01195      2204118          147  0.007193656    273.05974    3687.2221 
  388900    1365.4594    119.71878      2204118          147  0.007193656    305.14343    3536.8624 
  389000    1371.1132    116.77148      2204118          147  0.007193656    282.52216    3527.6224 
  389100    1455.4861    111.78704      2204118          147  0.007193656    215.09907      3659.89 
  389200    1457.6641    112.16315      2204118          147  0.007193656    217.19481    3667.1406 
  389300    1337.9124    111.47542      2204118          147  0.007193656    255.43384    3421.9557 
  389400    1361.5961    113.17862      2204118          147  0.007193656    259.10637    3481.6819 
  389500    1428.9469    113.68837      2204118          147  0.007193656    238.98589    3620.9648 
  389600    1433.1663     109.8483      2204118          147  0.007193656    208.63123    3600.5964 
  389700    1374.0425    113.05374      2204118          147  0.007193656    254.68447    3506.7177 
  389800    1381.7159    112.17784      2204118          147  0.007193656    244.28667     3514.481 
  389900    1402.3926    113.28407      2204118          147  0.007193656    246.41824    3565.5495 
  390000    1409.1816    108.94517      2204118          147  0.007193656    212.92468    3548.1237 
  390100    1381.8367    108.79163      2204118          147  0.007193656    221.17949    3491.6598 
  390200    1370.2546    115.36506      2204118          147  0.007193656    276.09774    3519.1658 
  390300    1489.6101    112.24105      2204118          147  0.007193656    209.26163     3734.816 
  390400     1436.711    111.27112      2204118          147  0.007193656    220.00837     3620.363 
  390500    1363.8268    113.41737      2204118          147  0.007193656    261.38233    3489.2374 
  390600    1392.4257    113.51409      2204118          147  0.007193656    251.50009    3547.0419 
  390700    1425.0625    113.15217      2204118          147  0.007193656    235.50606    3608.2916 
  390800    1389.5222    116.28364      2204118          147  0.007193656    271.35817    3560.0281 
  390900    1333.6619     112.0203      2204118          147  0.007193656    259.40097    3415.8628 
  391000    1364.8429    116.96849      2204118          147  0.007193656    287.94179    3518.2018 
  391100    1462.4707    111.52075      2204118          147  0.007193656    213.32772    3674.6495 
  391200    1386.3287    115.49116      2204118          147  0.007193656    271.42034    3552.5321 
  391300    1378.0396    111.18805      2204118          147  0.007193656    241.76242    3503.2558 
  391400    1411.6967    110.15267      2204118          147  0.007193656    222.57167    3563.7235 
  391500    1485.5787    114.50853      2204118          147  0.007193656    228.43166    3744.4446 
  391600    1486.5089    116.30262      2204118          147  0.007193656    240.54021    3758.7548 
  391700    1369.6659    114.65867      2204118          147  0.007193656    270.74491    3512.4198 
  391800    1379.6466    110.37407      2204118          147  0.007193656    234.15411     3499.451 
  391900    1396.3328    115.80345      2204118          147  0.007193656    267.81391     3572.603 
  392000    1440.8637     121.6302      2204118          147  0.007193656    293.37453    3703.5576 
  392100    1480.3207     116.8406      2204118          147  0.007193656    241.94731    3745.5157 
  392200    1357.1711    112.67632      2204118          147  0.007193656    257.73019    3469.8329 
  392300    1372.6718    106.50351      2204118          147  0.007193656    208.35297    3457.1421 
  392400    1399.6196    113.64981      2204118          147  0.007193656    253.71158    3566.2797 
  392500    1459.0931    112.08662      2204118          147  0.007193656    219.41067    3672.7386 
  392600    1370.0715     113.4096      2204118          147  0.007193656    262.91098    3505.5457 
  392700    1326.9994    105.37546      2204118          147  0.007193656     219.5369    3360.2302 
  392800    1392.7433    105.82382      2204118          147  0.007193656    199.46072    3495.7543 
  392900    1396.4001    115.98319      2204118          147  0.007193656    273.45338    3578.4016 
  393000      1408.71    117.35758      2204118          147  0.007193656    278.38948    3612.4725 
  393100    1430.7812    107.96024      2204118          147  0.007193656    199.61146    3585.9317 
  393200    1309.2865    108.19483      2204118          147  0.007193656    244.86322    3343.6344 
  393300    1297.2135    112.68435      2204118          147  0.007193656    282.73083    3352.9281 
  393400    1393.0142    107.91047      2204118          147  0.007193656    214.22343    3511.1581 
  393500    1445.7391    98.720441      2204118          147  0.007193656    128.36176    3550.0837 
  393600    1384.3031    97.925738      2204118          147  0.007193656    145.30708    3421.6248 
  393700    1320.1255    107.79883      2204118          147  0.007193656    239.91047    3364.3348 
  393800    1411.8873    114.67483      2204118          147  0.007193656    254.70116     3596.304 
  393900    1407.4498    121.69606      2204118          147  0.007193656    307.10883    3638.2092 
  394000    1390.6338    118.80517      2204118          147  0.007193656    290.10985    3581.4107 
  394100    1390.4967    110.24198      2204118          147  0.007193656    228.12489    3519.1012 
  394200      1362.89    105.30589      2204118          147  0.007193656    203.63141    3429.2693 
  394300    1347.5955    105.26927      2204118          147  0.007193656    209.52893    3398.9684 
  394400    1436.0653    109.87744      2204118          147  0.007193656    212.88606    3611.7125 
  394500    1438.9792    111.15128      2204118          147  0.007193656    220.88762    3626.6106 
  394600    1385.5901    108.89719      2204118          147  0.007193656    221.78932    3501.1531 
  394700    1354.9542    113.43906      2204118          147  0.007193656    264.57118     3471.427 
  394800    1438.9228    124.20619      2204118          147  0.007193656    313.24511    3718.8346 
  394900    1497.5676     119.6771      2204118          147  0.007193656    258.43296    3802.8208 
  395000    1400.8636    115.69511      2204118          147  0.007193656    266.81758      3582.33 
  395100    1377.3789       105.17      2204118          147  0.007193656    197.07222    3457.0019 
  395200    1348.1367    114.45938      2204118          147  0.007193656    278.22465     3468.945 
  395300    1448.4866    114.34413      2204118          147  0.007193656    238.64446    3666.8692 
  395400    1429.5888    117.67838      2204118          147  0.007193656     269.9607    3653.4588 
  395500    1385.0714    114.87032      2204118          147  0.007193656    263.25283    3541.3889 
  395600    1377.1432    118.48597      2204118          147  0.007193656    293.57505    3552.9469 
  395700    1429.3035    108.78092      2204118          147  0.007193656    201.43977    3584.2628 
  395800    1381.2677     113.9853      2204118          147  0.007193656    259.16917    3528.3028 
  395900    1378.7894    112.76903      2204118          147  0.007193656    251.04119    3514.3092 
  396000    1456.7256    112.74092      2204118          147  0.007193656    222.30017    3670.0247 
  396100    1459.3917    116.64644      2204118          147  0.007193656     251.4308    3705.4652 
  396200    1380.4837    109.17925      2204118          147  0.007193656    223.81241    3491.0905 
  396300     1347.596     113.6763      2204118          147  0.007193656    268.09446     3457.535 
  396400    1412.0565    116.29748      2204118          147  0.007193656    264.62275     3606.626 
  396500    1434.0013    111.96565      2204118          147  0.007193656    226.19242    3620.1339 
  396600    1381.3552    113.68391      2204118          147  0.007193656    256.91454    3526.2552 
  396700    1358.0677     120.6894      2204118          147  0.007193656    317.99716    3532.2217 
  396800    1483.4902    112.36345      2204118          147  0.007193656    208.34364    3719.4137 
  396900    1492.3132    117.27311      2204118          147  0.007193656    240.86954    3772.8215 
  397000    1345.1466    117.75005      2204118          147  0.007193656    297.03576    3480.6793 
  397100    1362.3451    116.67829      2204118          147  0.007193656    283.47488    3507.8231 
  397200    1441.2412    116.10608      2204118          147  0.007193656    250.81839     3661.895 
  397300    1430.5527    117.57704      2204118          147  0.007193656     264.8612    3650.6406 
  397400    1357.2387     112.8524      2204118          147  0.007193656    256.65265    3468.9153 
  397500    1331.8527    111.64145      2204118          147  0.007193656    258.98319    3411.1632 
  397600    1453.8631    112.01069      2204118          147  0.007193656     218.8889    3659.8386 
  397700    1439.8645    113.23068      2204118          147  0.007193656    232.73381    3640.5522 
  397800    1411.8467    106.54351      2204118          147  0.007193656    193.49164    3534.9985 
  397900    1362.0973    104.93165      2204118          147  0.007193656    201.83635     3425.598 
  398000    1359.7006    108.39191      2204118          147  0.007193656    227.62071      3445.71 
  398100    1474.6827    111.75117      2204118          147  0.007193656    209.93204    3700.1567 
  398200    1430.5993    118.27304      2204118          147  0.007193656    275.20952    3661.0992 
  398300    1381.6833    116.99188      2204118          147  0.007193656    283.37881    3553.4959 
  398400    1393.4375    112.34436      2204118          147  0.007193656    243.56534    3541.5019 
  398500    1410.9594    113.95575      2204118          147  0.007193656    250.96308    3590.3698 
  398600    1491.2226    113.14201      2204118          147  0.007193656    215.24929    3744.6199 
  398700    1447.2873    117.45327      2204118          147  0.007193656    262.92242    3688.3086 
  398800    1367.0107    109.57522      2204118          147  0.007193656    233.15051    3468.5411 
  398900     1364.033    107.79787      2204118          147  0.007193656    220.45139    3448.7944 
  399000    1424.7307    111.30904      2204118          147  0.007193656    223.10707    3595.1071 
  399100    1455.5322    115.45595      2204118          147  0.007193656    244.42638    3689.3264 
  399200    1377.8301    108.52776      2204118          147  0.007193656    220.98409    3481.9815 
  399300    1319.9461    109.87886      2204118          147  0.007193656    253.24707    3377.2468 
  399400     1416.145    102.86952      2204118          147  0.007193656    165.40694    3517.0867 
  399500    1422.2171    111.35307      2204118          147  0.007193656    226.24492     3592.296 
  399600    1395.6385    116.33319      2204118          147  0.007193656    272.25355    3575.3994 
  399700     1375.514     108.8603      2204118          147  0.007193656    223.52135    3479.0373 
  399800    1336.0198    107.28015      2204118          147  0.007193656    227.85105    3389.8936 
  399900    1417.6654    108.45144      2204118          147  0.007193656    206.42459    3561.7028 
  400000     1447.799    115.91479      2204118          147  0.007193656    252.03556     3678.633 
  400100     1406.336    112.65296      2204118          147  0.007193656    244.09863    3572.5629 
Loop time of 27.2772 on 1 procs for 400000 steps with 795 atoms

Performance: 316.748 ns/day, 0.076 hours/ns, 14664.239 timesteps/s
95.5% CPU use with 1 MPI tasks x no OpenMP threads

MPI task timing breakdown:
Section |  min time  |  avg time  |  max time  |%varavg| %total
---------------------------------------------------------------
Pair    | 11.604     | 11.604     | 11.604     |   0.0 | 42.54
Neigh   | 6.0007     | 6.0007     | 6.0007     |   0.0 | 22.00
Comm    | 0.95116    | 0.95116    | 0.95116    |   0.0 |  3.49
Output  | 1.9836     | 1.9836     | 1.9836     |   0.0 |  7.27
Modify  | 6.0446     | 6.0446     | 6.0446     |   0.0 | 22.16
Other   |            | 0.6937     |            |       |  2.54

Nlocal:            795 ave         795 max         795 min
Histogram: 1 0 0 0 0 0 0 0 0 0
Nghost:            149 ave         149 max         149 min
Histogram: 1 0 0 0 0 0 0 0 0 0
Neighs:           1623 ave        1623 max        1623 min
Histogram: 1 0 0 0 0 0 0 0 0 0

Total # of neighbors = 1623
Ave neighs/atom = 2.0415094
Neighbor list builds = 19636
Dangerous builds = 20

write_data graphene_single_layer_LJ_795C_after_temp_1400K.data
System init for write_data ...
  generated 0 of 0 mixed pair_coeff terms from geometric mixing rule
Total wall time: 0:00:27
