# System definition
read_data graphene_single_layer_x-45_y-45_795_C.data
Reading data file ...
  orthogonal box = (-51 -51 -51) to (96 96 51)
  1 by 1 by 1 MPI processor grid
  reading atoms ...
  795 atoms
  read_data CPU = 0.035 seconds
pair_style lj/cut 6
pair_coeff      1 1 0.066047 3.4

# Virtual force wall to keep the cylinder shape
#region myCylinder cylinder z 0. 0. 20.3 -22.079997 505.920003 units box
#fix wall all wall/region myCylinder lj93 1.0 1.0 2.5

# Minimization
timestep 0.25
thermo 100
thermo_style custom step temp press vol lx density pe etotal
dump 2 all custom 1000 graphene_single_layer_LJ_795C_after_temp_900K.lammpstrj id type x y z
min_style cg
minimize 1.0e-6 1.0e-6 100 1000
WARNING: Using 'neigh_modify every 1 delay 0 check yes' setting during minimization (../min.cpp:187)
  generated 0 of 0 mixed pair_coeff terms from geometric mixing rule
Neighbor list info ...
  update every 1 steps, delay 0 steps, check yes
  max neighbors/atom: 10000, page size: 100000
  master list distance cutoff = 6.4
  ghost atom cutoff = 6.4
  binsize = 3.2, bins = 46 46 32
  1 neighbor lists, perpetual/occasional/extra = 1 0 0
  (1) pair lj/cut, perpetual
      attributes: half, newton on
      pair build: half/bin/atomonly/newton
      stencil: half/bin/3d
      bin: standard
Per MPI rank memory allocation (min/avg/max) = 5.96 | 5.96 | 5.96 Mbytes
Step Temp Press Volume Lx Density PotEng TotEng 
       0            0    1335313.5      2204118          147  0.007193656     10699602     10699602 
     100            0     61841.43      2204118          147  0.007193656    488621.59    488621.59 
Loop time of 0.0855821 on 1 procs for 100 steps with 795 atoms

100.0% CPU use with 1 MPI tasks x no OpenMP threads

Minimization stats:
  Stopping criterion = max iterations
  Energy initial, next-to-last, final = 
      10699602.3573369   495470.853828546   488621.590421788
  Force two-norm initial, final = 694694.42 29375.63
  Force max component initial, final = 79169.705 9280.0147
  Final line search alpha, max atom move = 3.8811533e-05 0.36017159
  Iterations, force evaluations = 100 117

MPI task timing breakdown:
Section |  min time  |  avg time  |  max time  |%varavg| %total
---------------------------------------------------------------
Pair    | 0.056726   | 0.056726   | 0.056726   |   0.0 | 66.28
Neigh   | 0.022263   | 0.022263   | 0.022263   |   0.0 | 26.01
Comm    | 0.0004791  | 0.0004791  | 0.0004791  |   0.0 |  0.56
Output  | 8.27e-05   | 8.27e-05   | 8.27e-05   |   0.0 |  0.10
Modify  | 0          | 0          | 0          |   0.0 |  0.00
Other   |            | 0.006032   |            |       |  7.05

Nlocal:            795 ave         795 max         795 min
Histogram: 1 0 0 0 0 0 0 0 0 0
Nghost:              0 ave           0 max           0 min
Histogram: 1 0 0 0 0 0 0 0 0 0
Neighs:          13073 ave       13073 max       13073 min
Histogram: 1 0 0 0 0 0 0 0 0 0

Total # of neighbors = 13073
Ave neighs/atom = 16.444025
Neighbor list builds = 35
Dangerous builds = 0
#timestep 0.25
fix 1 all nvt temp 900.0 900.0 $(100.0*dt)
fix 1 all nvt temp 900.0 900.0 25
run 400000
  generated 0 of 0 mixed pair_coeff terms from geometric mixing rule
Per MPI rank memory allocation (min/avg/max) = 4.835 | 4.835 | 4.835 Mbytes
Step Temp Press Volume Lx Density PotEng TotEng 
     100            0     61841.43      2204118          147  0.007193656    488621.59    488621.59 
     200    28304.152    21132.195      2204118          147  0.007193656    153806.16    220795.39 
     300    8930.7421    9627.2704      2204118          147  0.007193656    70494.131    91631.083 
     400    4495.5666    5999.7713      2204118          147  0.007193656    43763.179     54403.12 
     500    2857.8731    4257.4612      2204118          147  0.007193656    30810.167    37574.076 
     600    2059.3444    3231.4903      2204118          147  0.007193656    23157.957    28031.938 
     700    1607.2006    2558.3232      2204118          147  0.007193656    18135.836    21939.699 
     800    1330.1693    2082.2352      2204118          147  0.007193656    14585.953    17734.149 
     900    1152.9587    1727.6354      2204118          147  0.007193656    11944.341    14673.122 
    1000    1038.8578    1452.8809      2204118          147  0.007193656    9899.0788    12357.809 
    1100    966.67754    1233.6293      2204118          147  0.007193656    8268.1959    10556.093 
    1200    923.22542    1054.9849      2204118          147  0.007193656    6940.6871     9125.743 
    1300     900.7097    906.98191      2204118          147  0.007193656    5842.2877    7974.0542 
    1400    891.25724    782.58599      2204118          147  0.007193656    4921.0085    7030.4033 
    1500    887.67772    677.46713      2204118          147  0.007193656    4146.1412    6247.0641 
    1600    887.71956    587.55413      2204118          147  0.007193656    3486.8891    5587.9111 
    1700    886.86479    510.78064      2204118          147  0.007193656    2928.6522    5027.6511 
    1800    886.65529    445.08599      2204118          147  0.007193656    2454.7865    4553.2896 
    1900    886.29224    389.73513      2204118          147  0.007193656    2059.8176    4157.4614 
    2000    891.10908    342.13027      2204118          147  0.007193656     1721.573    3830.6172 
    2100    894.64113    300.87478      2204118          147  0.007193656     1431.985    3549.3887 
    2200    892.78613    265.08446      2204118          147  0.007193656    1185.3142    3298.3275 
    2300    890.30498    234.44884      2204118          147  0.007193656    977.40947    3084.5505 
    2400    893.52849    208.21151      2204118          147  0.007193656    800.02695    2914.7973 
    2500    898.33958     185.4845      2204118          147  0.007193656    647.59089    2773.7479 
    2600    897.99061    165.51421      2204118          147  0.007193656    517.10879    2642.4399 
    2700    894.17597    148.07391      2204118          147  0.007193656    406.07749    2522.3802 
    2800    894.16238    133.18564      2204118          147  0.007193656    312.00919    2428.2798 
    2900    898.74321    120.51698      2204118          147  0.007193656    232.18203    2359.2944 
    3000    901.04229    109.41747      2204118          147  0.007193656    164.33894    2296.8927 
    3100    897.78351    99.563868      2204118          147  0.007193656    107.26553    2232.1065 
    3200    895.04335    91.072808      2204118          147  0.007193656    59.646627    2178.0023 
    3300    897.87551     83.98553      2204118          147  0.007193656    19.932054    2144.9908 
    3400    901.80948    77.944977      2204118          147  0.007193656   -12.968609    2121.4009 
    3500    900.53169    72.539319      2204118          147  0.007193656   -39.780069    2091.5652 
    3600    896.68679    67.741129      2204118          147  0.007193656   -61.642606    2060.6027 
    3700    896.98966    63.796552      2204118          147  0.007193656   -79.063468    2043.8986 
    3800    901.05334    60.588569      2204118          147  0.007193656   -93.069329    2039.5105 
    3900    902.26768    57.696756      2204118          147  0.007193656   -104.35357    2031.1004 
    4000    898.79273    54.929011      2204118          147  0.007193656   -113.86888    2013.3607 
    4100    896.61185     52.56077      2204118          147  0.007193656   -121.50107    2000.5668 
    4200    899.46449    50.738867      2204118          147  0.007193656   -127.48715    2001.3323 
    4300    902.64592    49.198664      2204118          147  0.007193656   -131.97627    2004.3729 
    4400      900.871    47.646742      2204118          147  0.007193656   -135.18859    1996.9597 
    4500    897.22615    46.204224      2204118          147  0.007193656   -137.33664    1986.1852 
    4600    897.91761    45.152501      2204118          147  0.007193656   -138.52434     1986.634 
    4700    901.83753    44.409795      2204118          147  0.007193656   -138.96056    1995.4753 
    4800    902.41308    43.635948      2204118          147  0.007193656    -138.7549    1997.0431 
    4900     898.7062    42.774453      2204118          147  0.007193656   -137.93488    1989.0899 
    5000    897.01694    42.115886      2204118          147  0.007193656   -136.65649    1986.3702 
    5100     900.2194    41.785859      2204118          147  0.007193656   -135.02162    1995.5845 
    5200    902.94883    41.514217      2204118          147  0.007193656   -133.02338    2004.0427 
    5300    900.59933    41.061583      2204118          147  0.007193656    -130.7996    2000.7057 
    5400    897.16453    40.617977      2204118          147  0.007193656   -128.36797     1995.008 
    5500    898.45149     40.46177      2204118          147  0.007193656   -125.74102    2000.6809 
    5600    902.31906     40.47729      2204118          147  0.007193656   -123.00401    2012.5715 
    5700    902.24382    40.339074      2204118          147  0.007193656   -120.18235    2015.2151 
    5800    898.35632    40.050953      2204118          147  0.007193656   -117.27211    2008.9245 
    5900    897.23046     39.92778      2204118          147  0.007193656   -114.34912    2009.1829 
    6000    900.77384    40.058826      2204118          147  0.007193656   -111.42677    2020.4916 
    6100    903.02607    40.149443      2204118          147  0.007193656   -108.49313    2028.7557 
    6200    900.17011    40.009506      2204118          147  0.007193656   -105.56203    2024.9274 
    6300    897.04113    39.870236      2204118          147  0.007193656   -102.70282    2020.3811 
    6400    898.91551    39.990468      2204118          147  0.007193656   -99.878751    2027.6414 
    6500    902.65314    40.213989      2204118          147  0.007193656   -97.087297    2039.2789 
    6600    901.93625    40.227646      2204118          147  0.007193656   -94.350853    2040.3186 
    6700    897.97593    40.088955      2204118          147  0.007193656    -91.67787    2033.6185 
    6800    897.45945    40.120818      2204118          147  0.007193656   -89.133476    2034.9405 
    6900     901.2633    40.369511      2204118          147  0.007193656   -86.644919    2046.4319 
    7000    902.97584    40.518593      2204118          147  0.007193656   -84.234392    2052.8956 
    7100    899.68559    40.424142      2204118          147  0.007193656   -81.920399    2047.4223 
    7200    896.95501    40.359756      2204118          147  0.007193656   -79.692833    2043.1873 
    7300    899.38346    40.552187      2204118          147  0.007193656    -77.52829    2051.0994 
    7400     902.8924    40.801461      2204118          147  0.007193656   -75.414584    2061.5179 
    7500    901.54231    40.815847      2204118          147  0.007193656   -73.348083    2060.3891 
    7600    897.61495    40.703559      2204118          147  0.007193656   -71.384857    2053.0571 
    7700    897.73561    40.789918      2204118          147  0.007193656   -69.513968    2055.2136 
    7800    901.70893    41.067148      2204118          147  0.007193656    -67.69628    2066.4352 
    7900    902.83236     41.20532      2204118          147  0.007193656   -65.940778    2070.8496 
    8000    899.19294    41.110135      2204118          147  0.007193656   -64.248868    2063.9279 
    8100    896.94307    41.082152      2204118          147  0.007193656   -62.638636    2060.2132 
    8200    899.87237    41.310298      2204118          147  0.007193656   -61.055151    2068.7296 
    8300    903.05665    41.550037      2204118          147  0.007193656   -59.539685    2077.7816 
    8400    901.10406    41.536233      2204118          147  0.007193656   -58.095984    2074.6039 
    8500    897.32384    41.429886      2204118          147  0.007193656   -56.752487    2067.0005 
    8600    898.08989    41.548403      2204118          147  0.007193656   -55.517047     2070.049 
    8700    901.94859    41.893222      2204118          147  0.007193656   -53.955919    2080.7428 
    8800    901.92273     42.32547      2204118          147  0.007193656   -50.517731    2084.1198 
    8900    897.78676    42.876652      2204118          147  0.007193656   -44.971356    2079.8773 
    9000    896.51542    44.010423      2204118          147  0.007193656   -36.442652     2085.397 
    9100     901.6454    45.299084      2204118          147  0.007193656   -29.567678    2104.4134 
    9200    904.18582    46.501157      2204118          147  0.007193656   -22.811204    2117.1825 
    9300    897.98892    48.167303      2204118          147  0.007193656   -9.6617927    2115.6653 
    9400    896.32366    50.253037      2204118          147  0.007193656    4.8879385    2126.2738 
    9500    896.73036    54.288832      2204118          147  0.007193656    33.264922    2155.6133 
    9600     906.1079    56.560134      2204118          147  0.007193656    44.974905    2189.5177 
    9700    911.62545    56.192796      2204118          147  0.007193656    39.272769    2196.8743 
    9800    898.68787    54.620924      2204118          147  0.007193656    31.231349    2158.2127 
    9900    879.63409    57.051418      2204118          147  0.007193656    54.900934    2136.7865 
   10000    903.16404    58.293459      2204118          147  0.007193656    54.338943    2191.9143 
   10100    920.67175    59.197119      2204118          147  0.007193656    54.197369    2233.2094 
   10200    905.90916    58.108708      2204118          147  0.007193656    50.707164    2194.7796 
   10300    882.58958    57.361585      2204118          147  0.007193656    52.648313    2141.5288 
   10400    884.10885     60.09858      2204118          147  0.007193656    71.044674     2163.521 
   10500    909.09269    65.762544      2204118          147  0.007193656    102.75314    2254.3602 
   10600    935.11247    64.483768      2204118          147  0.007193656    81.951609    2295.1414 
   10700    896.37433    63.175071      2204118          147  0.007193656    85.610409    2207.1162 
   10800    870.79123    60.842384      2204118          147  0.007193656    76.408277    2137.3649 
   10900    881.92005    64.573948      2204118          147  0.007193656    99.277122     2186.573 
   11000    937.56782    65.992767      2204118          147  0.007193656    89.075139    2308.0761 
   11100     931.4702    64.959687      2204118          147  0.007193656    84.212491    2288.7819 
   11200    872.15104    60.329713      2204118          147  0.007193656    70.455219    2134.6302 
   11300    850.50879    60.211243      2204118          147  0.007193656    75.096054    2088.0489 
   11400    905.72273    65.858293      2204118          147  0.007193656    94.774413    2238.4056 
   11500    955.31514    70.549115      2204118          147  0.007193656    109.50059    2370.5053 
   11600    912.25162    69.373265      2204118          147  0.007193656    114.71075    2273.7943 
   11700    854.45901     66.48439      2204118          147  0.007193656     113.8889     2136.191 
   11800    882.68765    63.731489      2204118          147  0.007193656    83.540952    2172.6536 
   11900    930.36416    65.913896      2204118          147  0.007193656    82.851025    2284.8027 
   12000    920.27989    67.170217      2204118          147  0.007193656    94.533728    2272.6183 
   12100    877.30906    67.122175      2204118          147  0.007193656    108.03833    2184.4211 
   12200    884.49553    65.514531      2204118          147  0.007193656    91.948875    2185.3403 
   12300    907.93614    69.376292      2204118          147  0.007193656    112.31391    2261.1837 
   12400    933.05462    67.558077      2204118          147  0.007193656    89.363611    2297.6829 
   12500     886.9313    68.460356      2204118          147  0.007193656    112.12286    2211.2792 
   12600    862.70973    69.924139      2204118          147  0.007193656    129.86971    2171.6993 
   12700    910.30705    71.451437      2204118          147  0.007193656    122.76627    2277.2475 
   12800    942.93139    72.224528      2204118          147  0.007193656    115.89732    2347.5926 
   12900    895.89989     72.32561      2204118          147  0.007193656    132.54212     2252.925 
   13000    866.90954    69.515629      2204118          147  0.007193656    121.42419    2173.1938 
   13100    891.70787    69.386562      2204118          147  0.007193656    111.48084    2221.9422 
   13200    928.60034    71.204637      2204118          147  0.007193656    111.05055    2308.8277 
   13300    914.36562    73.105095      2204118          147  0.007193656    129.95948    2294.0464 
   13400    876.81554    72.965574      2204118          147  0.007193656    142.18422    2217.3989 
   13500    884.37256    70.837019      2204118          147  0.007193656    122.71535    2215.8158 
   13600    911.66884    72.134615      2204118          147  0.007193656    121.98011    2279.6843 
   13700    909.65706     75.03285      2204118          147  0.007193656    144.24956    2297.1924 
   13800    880.95447    77.881022      2204118          147  0.007193656    175.50805    2260.5186 
   13900    867.94965    84.508277      2204118          147  0.007193656    228.89377     2283.125 
   14000    948.61804    78.433361      2204118          147  0.007193656    152.99512    2398.1494 
   14100    932.74194    78.938587      2204118          147  0.007193656    162.56447    2370.1437 
   14200    870.05984    81.156948      2204118          147  0.007193656    202.49555    2261.7211 
   14300    871.31966     82.94882      2204118          147  0.007193656    215.09567     2277.303 
   14400      925.033     85.82924      2204118          147  0.007193656    216.33266    2405.6667 
   14500    939.29372    85.214175      2204118          147  0.007193656    206.54861    2429.6344 
   14600    869.34064    84.319262      2204118          147  0.007193656    223.93304    2281.4565 
   14700    862.98268    80.134365      2204118          147  0.007193656    194.55302    2237.0287 
   14800    891.46679    87.349547      2204118          147  0.007193656    239.39993    2349.2907 
   14900    942.56824      88.3993      2204118          147  0.007193656    225.81671    2456.6525 
   15000    908.05121    87.602369      2204118          147  0.007193656    230.07981     2379.222 
   15100    839.66097    91.859321      2204118          147  0.007193656    286.02606    2273.3047 
   15200    874.33462    94.725997      2204118          147  0.007193656    291.92339    2361.2664 
   15300    954.46666    99.481713      2204118          147  0.007193656    298.30343       2557.3 
   15400    962.86797    91.893999      2204118          147  0.007193656     239.3322    2518.2127 
   15500    830.47514    91.529742      2204118          147  0.007193656    286.35999     2251.898 
   15600    836.92536    87.057472      2204118          147  0.007193656    249.63439    2230.4385 
   15700    927.82278     92.19575      2204118          147  0.007193656    254.78243    2450.7192 
   15800    970.39534    97.591065      2204118          147  0.007193656    280.30873    2577.0047 
   15900    908.26135    89.245835      2204118          147  0.007193656    239.01937    2388.6589 
   16000    831.24045    84.220874      2204118          147  0.007193656    230.67396    2198.0232 
   16100    865.50075    86.091495      2204118          147  0.007193656     231.4066    2279.8419 
   16200    945.67353    98.532936      2204118          147  0.007193656    295.68556    2533.8709 
   16300    1003.7834    92.168478      2204118          147  0.007193656    226.85926     2602.577 
   16400    843.94422    89.792768      2204118          147  0.007193656     266.9037    2264.3198 
   16500    813.89994    82.907315      2204118          147  0.007193656    225.06412    2151.3725 
   16600    916.60185    85.970854      2204118          147  0.007193656     211.3701    2380.7496 
   16700    970.12216    93.949914      2204118          147  0.007193656    250.35409    2546.4035 
   16800    919.72628    90.687982      2204118          147  0.007193656    243.05736    2419.8317 
   16900    840.39534    86.017923      2204118          147  0.007193656     236.9021    2225.9189 
   17000    859.25327    85.833069      2204118          147  0.007193656     228.1941    2261.8431 
   17100    939.64744    93.884048      2204118          147  0.007193656    259.75577    2483.6787 
   17200      956.469     96.30899      2204118          147  0.007193656     271.5475    2535.2831 
   17300    886.03471    88.148215      2204118          147  0.007193656    236.14363     2333.178 
   17400    835.26163    84.784435      2204118          147  0.007193656    229.95926    2206.8257 
   17500    884.33338    89.256424      2204118          147  0.007193656    246.20768    2339.2153 
   17600    981.97916    88.816141      2204118          147  0.007193656    208.17819    2532.2903 
   17700    925.93677    88.072732      2204118          147  0.007193656    222.66281    2414.1359 
   17800     845.8762    82.832359      2204118          147  0.007193656    210.66065    2212.6493 
   17900    847.17338    86.849003      2204118          147  0.007193656    240.07332    2245.1321 
   18000    947.92865    91.403937      2204118          147  0.007193656    238.07965    2481.6023 
   18100    954.45396    93.746049      2204118          147  0.007193656    253.40101    2512.3675 
   18200    893.97644    79.750577      2204118          147  0.007193656    171.04761    2286.8781 
   18300    822.00521    78.387458      2204118          147  0.007193656    188.88345    2134.3751 
   18400    869.48638    85.612894      2204118          147  0.007193656     226.7785    2284.6468 
   18500    994.38353    85.211686      2204118          147  0.007193656    177.90303    2531.3734 
   18600    936.72758    82.908987      2204118          147  0.007193656    180.18272    2397.1951 
   18700    808.40777    84.831111      2204118          147  0.007193656    240.58595    2153.8957 
   18800    863.94018    81.868788      2204118          147  0.007193656    197.27702    2242.0188 
   18900    967.00453    86.932172      2204118          147  0.007193656    197.68898    2486.3597 
   19000    954.08037    86.466181      2204118          147  0.007193656     199.0624    2457.1447 
   19100    859.80143    80.017562      2204118          147  0.007193656     186.2549    2221.2013 
   19200    835.09628    77.210465      2204118          147  0.007193656    174.27321    2150.7483 
   19300    922.39386    78.178711      2204118          147  0.007193656    149.20638    2332.2942 
   19400    953.21309    86.685786      2204118          147  0.007193656    201.56408    2457.5937 
   19500    902.72678    84.718293      2204118          147  0.007193656    204.21952      2340.76 
   19600    847.50007    82.808869      2204118          147  0.007193656    210.65957    2216.4915 
   19700    893.33063    80.293428      2204118          147  0.007193656    176.27826    2290.5803 
   19800    941.36622    83.926377      2204118          147  0.007193656    188.81317    2416.8041 
   19900    923.15619    81.734201      2204118          147  0.007193656    181.07972    2365.9718 
   20000    873.93883    73.546203      2204118          147  0.007193656    138.22554    2206.6318 
   20100    846.20427    75.725355      2204118          147  0.007193656    165.20159    2167.9667 
   20200    918.32567    77.767532      2204118          147  0.007193656    153.61963     2327.079 
   20300    962.33421    78.532575      2204118          147  0.007193656    142.67449    2420.2917 
   20400    893.71251      77.2654      2204118          147  0.007193656    157.62841    2272.8343 
   20500    845.01241    76.604382      2204118          147  0.007193656    171.28311    2171.2274 
   20600     904.1214    74.563959      2204118          147  0.007193656    136.62097    2276.4622 
   20700    957.39748    72.396123      2204118          147  0.007193656    102.02146    2367.9546 
   20800    891.16339    74.047927      2204118          147  0.007193656    138.07248    2247.2452 
   20900     849.7127    74.399578      2204118          147  0.007193656    155.59456    2166.6633 
   21000    908.23826    73.974485      2204118          147  0.007193656    131.73038    2281.3152 
   21100    929.63211     81.36675      2204118          147  0.007193656    180.16504    2380.3841 
   21200    925.36019    76.347594      2204118          147  0.007193656    145.43653     2335.545 
   21300    884.84689    68.649929      2204118          147  0.007193656    104.45055    2198.6736 
   21400    858.19937    67.584422      2204118          147  0.007193656    106.44991    2137.6046 
   21500    906.81399    69.347426      2204118          147  0.007193656    101.14855    2247.3625 
   21600    932.41747     75.34648      2204118          147  0.007193656    134.84485    2341.6562 
   21700    902.83936    78.040836      2204118          147  0.007193656    164.65079    2301.4577 
   21800    886.59156    73.405515      2204118          147  0.007193656     136.0687     2234.421 
   21900    886.43109    72.277331      2204118          147  0.007193656     129.0365     2227.009 
   22000      910.779    72.046418      2204118          147  0.007193656    118.55343    2274.1516 
   22100    901.95974     76.88749      2204118          147  0.007193656    158.23938    2292.9645 
   22200     903.8527    75.535485      2204118          147  0.007193656    147.81562    2287.0209 
   22300    896.64208     73.93495      2204118          147  0.007193656    138.71713    2260.8566 
   22400    899.14812     71.95752      2204118          147  0.007193656    122.92044    2250.9911 
   22500    894.27136    73.754685      2204118          147  0.007193656    138.47912    2255.0077 
   22600    903.75979    74.509632      2204118          147  0.007193656     141.1295    2280.1149 
   22700    917.59203    70.924077      2204118          147  0.007193656     109.7376    2281.4606 
   22800    888.41987    71.735423      2204118          147  0.007193656    127.36959     2230.049 
   22900    886.90197     70.90411      2204118          147  0.007193656     122.6142    2221.7011 
   23000    908.70037    70.114258      2204118          147  0.007193656    109.50086    2260.1794 
   23100    910.31978    70.818527      2204118          147  0.007193656    113.71016    2268.2215 
   23200    886.05876    73.286461      2204118          147  0.007193656      139.811    2236.9022 
   23300    893.99595    72.667796      2204118          147  0.007193656    131.27324    2247.1499 
   23400    916.28463    71.022407      2204118          147  0.007193656    111.31115    2279.9399 
   23500    901.51712    71.695744      2204118          147  0.007193656     122.1005     2255.778 
   23600    890.21495     71.32393      2204118          147  0.007193656    123.44695    2230.3749 
   23700    898.91641    70.728351      2204118          147  0.007193656    115.40838    2242.9306 
   23800    905.89026    72.022727      2204118          147  0.007193656    121.95619    2265.9839 
   23900    911.94115    70.971888      2204118          147  0.007193656    111.64566    2269.9944 
   24000    893.25908    71.216158      2204118          147  0.007193656    121.09337    2235.2261 
   24100    898.13042    67.893136      2204118          147  0.007193656    95.137705    2220.7997 
   24200    887.73979    71.445945      2204118          147  0.007193656    126.06768    2227.1375 
   24300      902.792    73.728431      2204118          147  0.007193656    136.58583    2273.2807 
   24400    911.16764    76.662397      2204118          147  0.007193656     154.5564    2311.0744 
   24500    897.44082    79.198631      2204118          147  0.007193656    178.82054    2302.8504 
   24600    911.11336    72.564321      2204118          147  0.007193656    124.84157    2281.2311 
   24700      896.114    68.991364      2204118          147  0.007193656    104.33186    2225.2215 
   24800    882.33782    70.634201      2204118          147  0.007193656    122.09476    2210.3794 
   24900    916.42305    70.241715      2204118          147  0.007193656    106.62339    2275.5797 
   25000    910.30698    73.868746      2204118          147  0.007193656    135.74105    2290.2221 
   25100    903.42282    71.503986      2204118          147  0.007193656    120.93879    2259.1267 
   25200     892.1084    68.924624      2204118          147  0.007193656     107.1847     2218.594 
   25300    890.09121     67.40268      2204118          147  0.007193656    96.899222    2203.5343 
   25400    894.91188    70.194059      2204118          147  0.007193656    115.67408    2233.7186 
   25500      911.839    72.873695      2204118          147  0.007193656    129.69323    2287.8002 
   25600    922.17119    71.307377      2204118          147  0.007193656    114.36477    2296.9256 
   25700    889.96285    70.669014      2204118          147  0.007193656    120.82299    2227.1543 
   25800    870.97457    72.149146      2204118          147  0.007193656    138.28043     2199.671 
   25900    911.73457    71.622911      2204118          147  0.007193656    118.97397    2276.8338 
   26000     921.6787    75.043377      2204118          147  0.007193656    141.95208    2323.3473 
   26100    904.46634    72.657769      2204118          147  0.007193656     130.9498    2271.6074 
   26200    889.35211    67.972469      2204118          147  0.007193656    102.30381    2207.1896 
   26300    884.36633    68.053438      2204118          147  0.007193656    104.61001    2197.6957 
   26400    899.20129    73.133982      2204118          147  0.007193656    136.55824    2264.7548 
   26500    935.97048    72.483633      2204118          147  0.007193656    118.18983    2333.4103 
   26600    904.44061    70.575699      2204118          147  0.007193656    115.74858    2256.3453 
   26700    858.14848      70.6051      2204118          147  0.007193656    132.90632    2163.9405 
   26800    891.25735     69.65275      2204118          147  0.007193656    112.65774    2222.0528 
   26900    928.06785    75.459335      2204118          147  0.007193656    142.31769    2338.8345 
   27000    928.80096    75.840055      2204118          147  0.007193656    144.54774    2342.7997 
   27100    880.71978    75.453204      2204118          147  0.007193656     161.1543    2245.6094 
   27200    886.45046    69.921769      2204118          147  0.007193656    120.22721    2218.2455 
   27300    898.87583    70.862473      2204118          147  0.007193656    123.84189    2251.2681 
   27400    919.35932    69.470344      2204118          147  0.007193656    105.01446    2280.9203 
   27500    896.42535    71.286791      2204118          147  0.007193656    124.63771    2246.2642 
   27600    879.64117    75.846997      2204118          147  0.007193656    163.07958    2244.9819 
   27700    917.77031    76.165574      2204118          147  0.007193656    150.05744    2322.2024 
   27800    923.17247    76.957106      2204118          147  0.007193656    153.44751    2338.3781 
   27900    888.04098    75.773728      2204118          147  0.007193656    158.71278    2260.4955 
   28000    867.12087    73.994475      2204118          147  0.007193656    153.54309    2205.8128 
   28100    911.85113    71.318086      2204118          147  0.007193656    117.97773    2276.1134 
   28200    932.15316    72.388033      2204118          147  0.007193656    120.27731    2326.4631 
   28300    892.64411    72.350591      2204118          147  0.007193656    134.92048    2247.5977 
   28400    871.55895     70.99038      2204118          147  0.007193656    132.61905    2195.3927 
   28500    901.64119    71.743405      2204118          147  0.007193656    127.52456    2261.4957 
   28600    932.15103     72.07235      2204118          147  0.007193656    117.79692    2323.9777 
   28700    890.18714    76.736662      2204118          147  0.007193656    166.23244    2273.0946 
   28800    880.10005    76.074441      2204118          147  0.007193656    162.44245    2245.4308 
   28900      895.449    79.895725      2204118          147  0.007193656    185.79305    2305.1088 
   29000    926.11839    80.113391      2204118          147  0.007193656     176.5148    2368.4177 
   29100    913.84691    76.276987      2204118          147  0.007193656    151.68143    2314.5407 
   29200    873.14055    75.028677      2204118          147  0.007193656    157.76496    2224.2819 
   29300    888.42315    71.853128      2204118          147  0.007193656    129.22125    2231.9084 
   29400    908.37997    72.897774      2204118          147  0.007193656     129.9583    2279.8786 
   29500    901.48258    75.909825      2204118          147  0.007193656    155.22858    2288.8244 
   29600    895.68973    76.478543      2204118          147  0.007193656    161.48035    2281.3658 
   29700    889.61623    79.545168      2204118          147  0.007193656    186.67615    2292.1871 
   29800    916.66296    76.293438      2204118          147  0.007193656    152.34961    2321.8737 
   29900    903.55395     75.85157      2204118          147  0.007193656    154.15785    2292.6561 
   30000    894.04637    72.849376      2204118          147  0.007193656    135.71002    2251.7061 
   30100    879.59511    76.627167      2204118          147  0.007193656    169.07281    2250.8661 
   30200    888.91883    84.483381      2204118          147  0.007193656    223.36362     2327.224 
   30300    939.02362    84.448875      2204118          147  0.007193656    203.64159    2426.0881 
   30400    921.04798    80.687457      2204118          147  0.007193656    181.75109    2361.6535 
   30500    873.28327     75.16998      2204118          147  0.007193656    157.54344    2224.3981 
   30600    867.37485    75.092137      2204118          147  0.007193656    159.39245    2212.2633 
   30700    905.59922    80.013665      2204118          147  0.007193656    183.07737    2326.4163 
   30800    944.18275    77.063458      2204118          147  0.007193656    145.11565    2379.7726 
   30900    876.34723     82.12112      2204118          147  0.007193656    207.61576    2281.7221 
   31000    875.87482    80.369364      2204118          147  0.007193656    195.83799    2268.8263 
   31100    905.00145    81.741831      2204118          147  0.007193656    196.71292     2338.637 
   31200    926.30214    79.431922      2204118          147  0.007193656    171.13807    2363.4759 
   31300    871.15849    83.391921      2204118          147  0.007193656    220.60996    2282.4358 
   31400    888.26355    77.769517      2204118          147  0.007193656     170.9692    2273.2787 
   31500    905.45223    79.943995      2204118          147  0.007193656    182.38565    2325.3767 
   31600    924.07845    77.898754      2204118          147  0.007193656     161.9002    2348.9751 
   31700    883.72647    79.698589      2204118          147  0.007193656    193.29237    2284.8636 
   31800    897.50779     70.25455      2204118          147  0.007193656    117.91783    2242.1062 
   31900    881.35229    72.059385      2204118          147  0.007193656    136.97698    2222.9291 
   32000    887.06772    79.172988      2204118          147  0.007193656     187.8942    2287.3734 
   32100    954.99837    75.642764      2204118          147  0.007193656    135.23411    2395.4891 
   32200    890.74373     81.56395      2204118          147  0.007193656     202.2208    2310.4003 
   32300    864.55144     76.94695      2204118          147  0.007193656    174.54685    2220.7354 
   32400    878.32056    80.894629      2204118          147  0.007193656    199.89077    2278.6675 
   32500    945.88304    79.851726      2204118          147  0.007193656    167.12294    2405.8041 
   32600    917.74512    82.060956      2204118          147  0.007193656    195.22959    2367.3149 
   32700    870.98044    76.401508      2204118          147  0.007193656    168.92235    2230.3268 
   32800    860.42156    77.405086      2204118          147  0.007193656    179.69255    2216.1066 
   32900    936.25995    75.861815      2204118          147  0.007193656    140.23246     2356.138 
   33000    925.02369     79.74697      2204118          147  0.007193656    172.83777    2362.1498 
   33100    888.74034    76.324963      2204118          147  0.007193656    158.94945    2262.3874 
   33200    859.86759    79.866965      2204118          147  0.007193656    196.57295    2231.6759 
   33300    923.52667     77.86442      2204118          147  0.007193656    158.55656    2344.3255 
   33400    940.40066    77.960359      2204118          147  0.007193656    153.77491    2379.4806 
   33500    884.94719    75.314246      2204118          147  0.007193656    152.91919    2247.3796 
   33600    840.42755    80.079601      2204118          147  0.007193656     204.7803    2193.8733 
   33700    932.22168    76.551802      2204118          147  0.007193656    146.17243    2352.5204 
   33800    951.84447    78.901033      2204118          147  0.007193656    158.54278    2411.3332 
   33900    877.11825    79.457066      2204118          147  0.007193656    190.63287    2266.5641 
   34000     871.9376    69.643906      2204118          147  0.007193656    119.31021      2182.98 
   34100    888.43651     70.79283      2204118          147  0.007193656    122.45044    2225.1693 
   34200    917.24642    76.478366      2204118          147  0.007193656    154.61612    2325.5212 
   34300    922.49286    76.950812      2204118          147  0.007193656    155.42157    2338.7437 
   34400    876.15087     78.71811      2204118          147  0.007193656    185.32326    2258.9649 
   34500    883.45621    76.960132      2204118          147  0.007193656    168.58965    2259.5213 
   34600    918.07292    78.056988      2204118          147  0.007193656    165.33634    2338.1975 
   34700    929.09985    74.042274      2204118          147  0.007193656    132.21976    2331.1791 
   34800    874.32898    71.452881      2204118          147  0.007193656    132.94696    2202.2766 
   34900    862.20493    71.909207      2204118          147  0.007193656    141.09982    2181.7347 
   35000    918.85866     73.36925      2204118          147  0.007193656    130.97339    2305.6942 
   35100    934.97816    78.282592      2204118          147  0.007193656    161.56098    2374.4329 
   35200    920.49932    72.874306      2204118          147  0.007193656    126.37226    2304.9762 
   35300    861.59865    71.898161      2204118          147  0.007193656       141.05      2180.25 
   35400    870.80085    72.066266      2204118          147  0.007193656    138.55061      2199.53 
   35500    924.76926     75.25683      2204118          147  0.007193656    142.98328    2331.6931 
   35600    942.28141    73.473084      2204118          147  0.007193656    122.46935    2352.6263 
   35700    866.27589     76.33325      2204118          147  0.007193656    171.49547    2221.7653 
   35800    871.55643    73.455459      2204118          147  0.007193656    148.03133     2210.799 
   35900    927.42602    73.127448      2204118          147  0.007193656    126.37374    2321.3715 
   36000    928.26481    74.783734      2204118          147  0.007193656    139.09202     2336.075 
   36100    878.38759    74.513726      2204118          147  0.007193656      155.041    2233.9764 
   36200    874.37836    73.556071      2204118          147  0.007193656    151.29382    2220.7403 
   36300    924.37031    70.959099      2204118          147  0.007193656    115.56582    2303.3314 
   36400    918.03707    73.111949      2204118          147  0.007193656    134.94157    2307.7179 
   36500    891.80211    72.088663      2204118          147  0.007193656    136.81195    2247.4964 
   36600    878.39324    71.801219      2204118          147  0.007193656    139.11537    2218.0642 
   36700    911.53454    70.343399      2204118          147  0.007193656    115.85393    2273.2403 
   36800    916.99506    72.397456      2204118          147  0.007193656    129.42522    2299.7354 
   36900    888.51814    73.151563      2204118          147  0.007193656    143.68005    2246.5921 
   37000    873.06963    76.167577      2204118          147  0.007193656    171.48793     2237.837 
   37100    919.22079    74.781108      2204118          147  0.007193656    144.42433    2320.0023 
   37200    910.47326    78.421066      2204118          147  0.007193656    175.28045     2330.155 
   37300    902.29921    73.283742      2204118          147  0.007193656    139.08235    2274.6109 
   37400    881.16342    72.695142      2204118          147  0.007193656     143.2155    2228.7207 
   37500     904.4482     68.59704      2204118          147  0.007193656    103.40149    2244.0162 
   37600    898.02859    73.520116      2204118          147  0.007193656     141.1733    2266.5943 
   37700    904.15655    76.095799      2204118          147  0.007193656    156.63785    2296.5623 
   37800    908.45898    76.313264      2204118          147  0.007193656    156.06146    2306.1687 
   37900    902.50768    75.182283      2204118          147  0.007193656    149.97581    2285.9978 
   38000    892.32733    73.898946      2204118          147  0.007193656    144.75503    2256.6825 
   38100    905.29006    70.558836      2204118          147  0.007193656    115.77003    2258.3772 
   38200    896.43655    72.515254      2204118          147  0.007193656    134.42866    2256.0817 
   38300    893.41642    73.782081      2204118          147  0.007193656    145.19297    2259.6981 
   38400    920.43354    69.744681      2204118          147  0.007193656    106.00122    2284.4494 
   38500    899.88472    70.140215      2204118          147  0.007193656    117.42016    2247.2342 
   38600    878.18423    71.056584      2204118          147  0.007193656    132.03925    2210.4934 
   38700    908.42513    68.477415      2204118          147  0.007193656    100.85429    2250.8814 
   38800    904.42956    72.783824      2204118          147  0.007193656    133.83522    2274.4058 
   38900    902.69681    71.678888      2204118          147  0.007193656    124.34387    2260.8134 
   39000     882.4681    74.685531      2204118          147  0.007193656    153.81333    2242.4063 
   39100    907.13386    72.841326      2204118          147  0.007193656    130.52157    2277.4926 
   39200    915.15303    73.103941      2204118          147  0.007193656    129.20767    2295.1582 
   39300    894.86121    73.392537      2204118          147  0.007193656    137.80988    2255.7345 
   39400    870.42594    78.901384      2204118          147  0.007193656     188.5238    2248.6159 
   39500    926.41595    74.794753      2204118          147  0.007193656    137.92523    2330.5324 
   39600    921.10419    75.185555      2204118          147  0.007193656    144.65295    2324.6884 
   39700    886.37479    71.664094      2204118          147  0.007193656    132.42063    2230.2599 
   39800    884.94418    64.915064      2204118          147  0.007193656     82.73907    2177.1924 
   39900    882.25628    69.861458      2204118          147  0.007193656    120.39939    2208.4911 
   40000    910.27891    75.429861      2204118          147  0.007193656    151.00154    2305.4161 
   40100    934.35596    75.731857      2204118          147  0.007193656    145.71107    2357.1104 
   40200      909.839    71.045673      2204118          147  0.007193656    122.20801    2275.5815 
   40300    872.42547      63.5845      2204118          147  0.007193656    80.851821    2145.6763 
   40400    859.47054    65.205279      2204118          147  0.007193656    96.556197    2130.7194 
   40500    909.51367     72.24314      2204118          147  0.007193656    129.47759    2282.0811 
   40600    955.02673    74.479706      2204118          147  0.007193656    127.58484    2387.9069 
   40700    899.73832    74.584917      2204118          147  0.007193656    146.69287    2276.1604 
   40800    858.67474    72.808139      2204118          147  0.007193656    147.42945    2179.7092 
   40900    884.51599    76.041078      2204118          147  0.007193656     162.9057    2256.3456 
   41000    941.67235    76.352798      2204118          147  0.007193656    142.76981    2371.4853 
   41100    914.39349    78.025315      2204118          147  0.007193656    165.12625    2329.2791 
   41200    878.83798    74.096239      2204118          147  0.007193656    149.09428    2229.0957 
   41300    871.52185    74.721973      2204118          147  0.007193656    156.92179    2219.6076 
   41400    923.54078    74.938385      2204118          147  0.007193656     140.1261    2325.9284 
   41500    927.60559     77.75333      2204118          147  0.007193656    160.59309    2356.0158 
   41600    896.42784    73.764684      2204118          147  0.007193656      141.002    2262.6344 
   41700    853.84445    75.417808      2204118          147  0.007193656    167.60013    2188.4477 
   41800    887.50207    78.889451      2204118          147  0.007193656    180.70432    2281.2115 
   41900    957.88119     78.26871      2204118          147  0.007193656    150.50597    2417.5839 
   42000    911.89567    78.075064      2204118          147  0.007193656    166.37381    2324.6149 
   42100    851.35674    74.032896      2204118          147  0.007193656    159.68679    2174.6466 
   42200    869.82656    73.106719      2204118          147  0.007193656    148.28718    2206.9607 
   42300    944.33826    72.453672      2204118          147  0.007193656    116.94805    2351.9731 
   42400    927.37163    73.692224      2204118          147  0.007193656    132.23714    2327.1062 
   42500    870.69093    71.080866      2204118          147  0.007193656    131.95361    2192.6729 
   42600    857.59709    73.855976      2204118          147  0.007193656    156.65188    2186.3811 
   42700    925.91023    75.392669      2204118          147  0.007193656    141.23721    2332.6475 
   42800    937.04544    81.068832      2204118          147  0.007193656    178.82168    2396.5863 
   42900    895.27785    78.500096      2204118          147  0.007193656    173.41002    2292.3207 
   43000    859.86017    76.501655      2204118          147  0.007193656    170.95977    2206.0452 
   43100    896.31532    77.245529      2204118          147  0.007193656    164.55647    2285.9226 
   43200    939.21726    79.331423      2204118          147  0.007193656    165.53655    2388.4414 
   43300    922.80472    75.065498      2204118          147  0.007193656    139.87239    2323.9326 
   43400    861.56441    72.536803      2204118          147  0.007193656    143.94557    2183.0645 
   43500    866.45647    71.763331      2204118          147  0.007193656    135.16376     2185.861 
   43600    914.27933    78.503329      2204118          147  0.007193656    167.91825    2331.8009 
   43700    956.40404    78.727815      2204118          147  0.007193656     154.8818    2418.4637 
   43800    892.04843    75.981452      2204118          147  0.007193656    158.82029    2270.0877 
   43900    842.30072    72.387899      2204118          147  0.007193656    149.15638    2142.6827 
   44000    884.61534     74.09943      2204118          147  0.007193656    145.41848    2239.0935 
   44100    940.00046    82.201806      2204118          147  0.007193656    185.24383    2410.0023 
   44200    939.62288    81.239523      2204118          147  0.007193656    177.42863    2401.2935 
   44300    867.33923    78.433969      2204118          147  0.007193656    183.24279    2236.0293 
   44400    867.11069    73.716108      2204118          147  0.007193656    149.18404    2201.4297 
   44500      910.663    76.770642      2204118          147  0.007193656    157.94909    2313.2727 
   44600    937.74582    77.520108      2204118          147  0.007193656    153.49178    2372.9141 
   44700    895.55453    76.931242      2204118          147  0.007193656    164.08384    2283.6493 
   44800     872.0997    73.022302      2204118          147  0.007193656    142.98616    2207.0396 
   44900     893.5386    71.900709      2204118          147  0.007193656    125.81526    2240.6095 
   45000     904.1609    79.581498      2204118          147  0.007193656    177.31267    2317.2474 
   45100    925.34594    81.381159      2204118          147  0.007193656    181.04622    2371.1209 
   45200    905.91232    80.390741      2204118          147  0.007193656    180.83119    2324.9111 
   45300    884.55641    76.622651      2204118          147  0.007193656    160.79693    2254.3325 
   45400    881.75907    78.630067      2204118          147  0.007193656    178.47908     2265.394 
   45500    927.08387    76.266057      2204118          147  0.007193656    144.81048    2338.9985 
   45600    908.89277    77.744856      2204118          147  0.007193656    163.81947    2314.9534 
   45700    890.86971    72.240325      2204118          147  0.007193656    127.96895    2236.4466 
   45800    855.11232     80.05127      2204118          147  0.007193656    197.75967     2221.608 
   45900    915.95591    83.317909      2204118          147  0.007193656    199.13595    2366.9867 
   46000     965.3195    80.405778      2204118          147  0.007193656    160.75432     2445.437 
   46100    897.72505    74.481574      2204118          147  0.007193656    143.20415    2267.9067 
   46200    834.14816    71.764606      2204118          147  0.007193656    148.06899    2122.3001 
   46300    879.54479    74.335164      2204118          147  0.007193656    152.38553    2234.0598 
   46400    969.17973    76.460655      2204118          147  0.007193656    136.23946    2430.0584 
   46500    923.06817     78.26623      2204118          147  0.007193656    165.65696    2350.3407 
   46600    853.98995    73.987965      2204118          147  0.007193656    158.03357    2179.2255 
   46700    867.91116    70.797909      2204118          147  0.007193656    128.80312    2182.9433 
   46800    923.59995    74.383003      2204118          147  0.007193656    134.56523    2320.5076 
   46900    934.72303    78.957377      2204118          147  0.007193656    163.65876    2375.9268 
   47000    890.60762     78.19131      2204118          147  0.007193656     172.7354    2280.5927 
   47100    870.22041    74.812773      2204118          147  0.007193656    154.08298    2213.6886 
   47200    890.51231    76.872337      2204118          147  0.007193656    162.32324     2269.955 
   47300    931.04263    79.354589      2204118          147  0.007193656    167.61982    2371.1772 
   47400    931.83254     75.52738      2204118          147  0.007193656     139.5206    2344.9476 
   47500    864.20934    75.381982      2204118          147  0.007193656    162.53543    2207.9143 
   47600    867.01159    75.704213      2204118          147  0.007193656    163.18286     2215.194 
   47700    922.51169    80.382621      2204118          147  0.007193656    178.18379    2361.5505 
   47800    948.83098    81.011506      2204118          147  0.007193656    174.06838    2419.7266 
   47900    893.49936    77.522594      2204118          147  0.007193656     169.5365    2284.2379 
   48000    860.64856    72.240823      2204118          147  0.007193656    143.83968     2180.791 
   48100    901.60498    68.180196      2204118          147  0.007193656    100.05431    2233.9398 
   48200    915.68946    73.569795      2204118          147  0.007193656    135.63599    2302.8561 
   48300    912.92954    73.451402      2204118          147  0.007193656    133.84183    2294.5298 
   48400    883.10253    74.825652      2204118          147  0.007193656    154.53324    2244.6278 
   48500    894.43594    72.655981      2204118          147  0.007193656    134.81532    2251.7334 
   48600    912.66343    71.638007      2204118          147  0.007193656     122.1061    2282.1643 
   48700    903.21668    71.417896      2204118          147  0.007193656    124.82649    2262.5265 
   48800    890.08607    69.635725      2204118          147  0.007193656    116.28259    2222.9055 
   48900    880.42826    72.536882      2204118          147  0.007193656    140.21654    2223.9817 
   49000    904.93577    76.599585      2204118          147  0.007193656    160.78256    2302.5512 
   49100    939.53985    75.452205      2204118          147  0.007193656    139.04878    2362.7171 
   49200    902.10988    74.136275      2204118          147  0.007193656    142.36924    2277.4497 
   49300    864.67943    72.829689      2204118          147  0.007193656    145.83861      2192.33 
   49400    892.42312    72.090681      2204118          147  0.007193656    129.27386     2241.428 
   49500    918.33496    78.113505      2204118          147  0.007193656    164.44261     2337.924 
   49600    917.11235    79.371923      2204118          147  0.007193656    174.85929     2345.447 
   49700     899.7571    72.740413      2204118          147  0.007193656    132.07667    2261.5886 
   49800    869.10593    71.843882      2204118          147  0.007193656    137.59541    2194.5633 
   49900    891.66245     72.12715      2204118          147  0.007193656    131.58008    2241.9339 
   50000     921.3016    75.614694      2204118          147  0.007193656    147.84943    2328.3521 
   50100    919.78357    73.376566      2204118          147  0.007193656    130.96481    2307.8747 
   50200    869.49257    75.223082      2204118          147  0.007193656     163.0983    2220.9813 
   50300    892.47809    73.104777      2204118          147  0.007193656    140.24387    2252.5282 
   50400    930.66513    70.801888      2204118          147  0.007193656    110.52977    2313.1937 
   50500    910.61407    69.113341      2204118          147  0.007193656    106.22012     2261.428 
   50600     867.7095    68.896901      2204118          147  0.007193656    119.48637    2173.1493 
   50700    876.23212    71.979347      2204118          147  0.007193656    137.53208     2211.366 
   50800    929.38412    75.814837      2204118          147  0.007193656    144.84338    2344.4755 
   50900     932.1111    77.271831      2204118          147  0.007193656    153.17519    2359.2614 
   51000    884.10466    74.867691      2204118          147  0.007193656    152.54824    2245.0146 
   51100    859.41745     74.93468      2204118          147  0.007193656    163.05931    2197.0969 
   51200    905.40552    75.547136      2204118          147  0.007193656    151.54876    2294.4292 
   51300    943.93956    74.922231      2204118          147  0.007193656    133.61351    2367.6949 
   51400    902.81771    72.262404      2204118          147  0.007193656     129.6446    2266.4003 
   51500    852.95372    71.293229      2204118          147  0.007193656     140.6768    2159.4163 
   51600    891.40566    71.185126      2204118          147  0.007193656    126.34894     2236.095 
   51700    932.35079    76.452945      2204118          147  0.007193656    151.13536    2357.7889 
   51800    927.96399    74.823369      2204118          147  0.007193656    138.58338    2334.8544 
   51900    873.28036    74.338273      2204118          147  0.007193656    153.16875    2220.0165 
   52000      870.928     75.00581      2204118          147  0.007193656    157.59937    2218.8797 
   52100    908.86179    79.898624      2204118          147  0.007193656    180.57172    2331.6323 
   52200    944.34795    77.299242      2204118          147  0.007193656    148.11678    2383.1647 
   52300    891.11185     75.64663      2204118          147  0.007193656    155.91732     2264.968 
   52400    856.96795    73.857254      2204118          147  0.007193656    156.02066    2184.2608 
   52500    906.45057    71.432903      2204118          147  0.007193656    120.08836    2265.4422 
   52600    923.62381    76.955512      2204118          147  0.007193656    154.78028    2340.7791 
   52700    911.31211    77.300339      2204118          147  0.007193656    162.71319    2319.5731 
   52800    891.47211    71.832209      2204118          147  0.007193656    129.22701    2239.1304 
   52900    867.49077    74.166271      2204118          147  0.007193656    156.06457    2209.2098 
   53000     916.8817    72.991174      2204118          147  0.007193656    129.22496    2299.2668 
   53100    926.26869    75.241953      2204118          147  0.007193656    141.41707    2333.6757 
   53200    885.48042     78.08651      2204118          147  0.007193656    177.21323    2272.9357 
   53300    889.88597    74.363669      2204118          147  0.007193656    148.64929    2254.7986 
   53400    903.98099    73.399122      2204118          147  0.007193656    137.54822    2277.0571 
   53500     910.9121    71.780421      2204118          147  0.007193656    123.01364    2278.9269 
   53600    893.36127    70.998241      2204118          147  0.007193656    123.22301    2237.5976 
   53700    873.81025    74.924923      2204118          147  0.007193656    159.27532    2227.3772 
   53800    914.77548    75.159303      2204118          147  0.007193656    145.99693    2311.0539 
   53900    926.63449    76.970747      2204118          147  0.007193656    156.37384    2349.4982 
   54000    893.87668    75.399079      2204118          147  0.007193656    156.10716    2271.7016 
   54100    876.52441    73.082067      2204118          147  0.007193656    145.53336    2220.0591 
   54200    901.89178    70.613682      2204118          147  0.007193656    117.27386    2251.8381 
   54300    900.38289    75.058709      2204118          147  0.007193656    149.47078    2280.4638 
   54400    909.82464    75.827143      2204118          147  0.007193656    150.94958     2304.289 
   54500    897.86755    77.390116      2204118          147  0.007193656    167.42135    2292.4612 
   54600    898.77167    75.026757      2204118          147  0.007193656    150.48125    2277.6609 
   54700    908.09508    71.860561      2204118          147  0.007193656    124.01833    2273.2643 
   54800    894.17053    74.385647      2204118          147  0.007193656    147.29109     2263.581 
   54900    898.01752    74.896785      2204118          147  0.007193656    148.02788    2273.4227 
   55000    901.00481    77.289513      2204118          147  0.007193656    164.03141    2296.4964 
   55100    904.60646    79.466891      2204118          147  0.007193656    179.81624    2320.8055 
   55200    925.27187    72.894807      2204118          147  0.007193656    123.73871    2313.6381 
   55300    882.51343    72.749309      2204118          147  0.007193656    139.23402    2227.9343 
   55400    869.11188    73.248344      2204118          147  0.007193656    147.97188    2204.9539 
   55500    917.03619    71.686081      2204118          147  0.007193656    118.28461    2288.6921 
   55600    923.81903    73.168483      2204118          147  0.007193656    126.57835    2313.0392 
   55700    888.13591    74.199229      2204118          147  0.007193656    146.54377    2248.5511 
   55800     885.5616    73.740145      2204118          147  0.007193656    143.72395    2239.6385 
   55900    900.20892    77.868344      2204118          147  0.007193656    168.35482    2298.9361 
   56000    907.62566      84.1376      2204118          147  0.007193656    212.40043    2360.5354 
   56100    936.23506    77.753369      2204118          147  0.007193656    154.59403    2370.4407 
   56200    894.53236    72.028823      2204118          147  0.007193656    127.83153    2244.9778 
   56300    838.15188    76.615931      2204118          147  0.007193656    182.06206    2165.7691 
   56400    906.12253    78.699217      2204118          147  0.007193656    172.48057     2317.058 
   56500    969.55426    79.593637      2204118          147  0.007193656     157.2216    2451.9269 
   56600    916.09961     74.01883      2204118          147  0.007193656    135.71241    2303.9032 
   56700    834.02354    71.608155      2204118          147  0.007193656    148.26506    2122.2013 
   56800    861.29241     74.08223      2204118          147  0.007193656    157.07787     2195.553 
   56900    963.25571    76.463349      2204118          147  0.007193656    139.05081     2418.849 
   57000    957.64376    73.297264      2204118          147  0.007193656    117.53869    2384.0547 
   57100    843.21703    72.592526      2204118          147  0.007193656    153.43869    2149.1337 
   57200    848.69606     70.22782      2204118          147  0.007193656    133.65753    2142.3201 
   57300    927.28538    75.196438      2204118          147  0.007193656    141.38773    2336.0526 
   57400    939.76143    85.102679      2204118          147  0.007193656    209.96885    2434.1616 
   57500    926.99764    76.576515      2204118          147  0.007193656    149.95047    2343.9344 
   57600    847.56651    75.162806      2204118          147  0.007193656    169.60489    2175.5941 
   57700    865.09524    74.048746      2204118          147  0.007193656    155.28375    2202.7593 
   57800    947.36265    74.220834      2204118          147  0.007193656    127.57042    2369.7535 
   57900     935.4253    74.537235      2204118          147  0.007193656    133.65338    2347.5835 
   58000    852.10047    75.758667      2204118          147  0.007193656    171.93821    2188.6582 
   58100    872.58652    72.455661      2204118          147  0.007193656    139.56995    2204.7756 
   58200    930.16721    75.147814      2204118          147  0.007193656    139.30598    2340.7915 
   58300    926.76028    78.553081      2204118          147  0.007193656    164.74365    2358.1658 
   58400    891.78929    75.855445      2204118          147  0.007193656     157.1102    2267.7642 
   58500    880.84371    71.172062      2204118          147  0.007193656    126.91615    2211.6646 
   58600    891.88988     72.29412      2204118          147  0.007193656    131.87579    2242.7679 
   58700    912.41342    75.852453      2204118          147  0.007193656    149.63451     2309.101 
   58800    900.70526    81.777309      2204118          147  0.007193656    196.71351    2328.4696 
   58900    915.14189    79.210958      2204118          147  0.007193656    173.08898    2339.0131 
   59000    907.61494    74.909255      2204118          147  0.007193656    145.68785    2293.7975 
   59100    875.80439    73.073521      2204118          147  0.007193656    144.02142     2216.843 
   59200    881.36423    73.334394      2204118          147  0.007193656    144.45877    2230.4392 
   59300    922.20283    73.159274      2204118          147  0.007193656    128.79716    2311.4329 
   59400     917.1371    74.086253      2204118          147  0.007193656    137.75218    2308.3985 
   59500    897.43417    68.260028      2204118          147  0.007193656    101.05721    2225.0714 
   59600    860.04413    70.172822      2204118          147  0.007193656    128.02848    2163.5493 
   59700    888.71907    74.872957      2204118          147  0.007193656    151.09668    2254.4842 
   59800    947.57138    78.484321      2204118          147  0.007193656    157.14789    2399.8249 
   59900    933.34021    74.364211      2204118          147  0.007193656    131.95296    2340.9482 
   60000    843.18597    74.843748      2204118          147  0.007193656     168.5247    2164.1462 
   60100    870.32522     72.21224      2204118          147  0.007193656    139.89533     2199.749 
   60200    947.58694    71.317166      2204118          147  0.007193656    105.93713     2348.651 
   60300    897.26156    80.765884      2204118          147  0.007193656    195.27164    2318.8773 
   60400     891.8002    73.391419      2204118          147  0.007193656    141.05397    2251.7339 
   60500    883.66537    72.437354      2204118          147  0.007193656    137.28457    2228.7112 
   60600    895.63483    74.519916      2204118          147  0.007193656    148.15471    2267.9103 
   60700    929.65393    71.663729      2204118          147  0.007193656    113.64412    2313.9148 
   60800    893.53843    73.247541      2204118          147  0.007193656    137.45334    2252.2472 
   60900    868.43845    75.941757      2204118          147  0.007193656    165.69441    2221.0826 
   61000     912.1814    75.441166      2204118          147  0.007193656    145.64347    2304.5608 
   61100    921.79555    78.436193      2204118          147  0.007193656    165.13263    2346.8044 
   61200    911.35668    73.387069      2204118          147  0.007193656    131.13919    2288.1046 
   61300    864.50295    75.129856      2204118          147  0.007193656    162.83053    2208.9043 
   61400    898.22703    71.815524      2204118          147  0.007193656    125.68303    2251.5737 
   61500    913.08099    77.750705      2204118          147  0.007193656    165.08463    2326.1311 
   61600    916.17497    78.930672      2204118          147  0.007193656    173.56431    2341.9335 
   61700    907.90302    72.047915      2204118          147  0.007193656    124.96972    2273.7612 
   61800    865.18267    73.708494      2204118          147  0.007193656    152.91516    2200.5976 
   61900    888.74476    75.674741      2204118          147  0.007193656    158.54182    2261.9902 
   62000    935.08455    77.784072      2204118          147  0.007193656    158.09147    2371.2152 
   62100    928.08822    74.721444      2204118          147  0.007193656    138.25184    2334.8169 
   62200    863.94935    73.096436      2204118          147  0.007193656    149.98745     2194.751 
   62300    869.45833    70.522444      2204118          147  0.007193656    128.90789    2186.7098 
   62400    918.40564    72.975642      2204118          147  0.007193656    128.83581    2302.4845 
   62500    920.94396    80.077003      2204118          147  0.007193656    181.49998    2361.1562 
   62600    915.52249    74.516125      2204118          147  0.007193656    143.35505      2310.18 
   62700    881.87771    69.297404      2204118          147  0.007193656    118.98575    2206.1815 
   62800    880.33933    65.281269      2204118          147  0.007193656    90.502528    2174.0573 
   62900    886.54853    71.039624      2204118          147  0.007193656    130.24632    2228.4967 
   63000    925.59246      73.5477      2204118          147  0.007193656    131.69284     2322.351 
   63100    911.25763    78.012693      2204118          147  0.007193656    167.25496     2323.986 
   63200    891.03631    78.284402      2204118          147  0.007193656    175.62757    2284.4995 
   63300    906.01318    73.621855      2204118          147  0.007193656    135.67672    2279.9954 
   63400     894.1972    76.078631      2204118          147  0.007193656     158.8707    2275.2237 
   63500    906.70103    74.615087      2204118          147  0.007193656    142.98788    2288.9345 
   63600    887.18174    78.819142      2204118          147  0.007193656    181.60874    2281.3578 
   63700    893.92924    79.111816      2204118          147  0.007193656    181.67251    2297.3913 
   63800      927.951    72.151904      2204118          147  0.007193656    118.18856    2314.4288 
   63900    888.49606    72.183331      2204118          147  0.007193656    133.42972    2236.2895 
   64000    875.32216    71.408255      2204118          147  0.007193656    132.93337    2204.6136 
   64100    908.80148    71.063917      2204118          147  0.007193656     118.7942    2269.7121 
   64200    913.98733    73.645514      2204118          147  0.007193656    136.59767    2299.7892 
   64300    892.35093    73.453365      2204118          147  0.007193656    141.71227    2253.6956 
   64400    872.05713    77.131444      2204118          147  0.007193656     176.3489    2240.3016 
   64500    921.33709    74.748317      2204118          147  0.007193656    140.88122    2321.4679 
   64600    930.18913    73.813094      2204118          147  0.007193656    131.46971    2333.0071 
   64700    882.05714    72.897286      2204118          147  0.007193656    140.61107    2228.2314 
   64800    861.14502    76.277115      2204118          147  0.007193656    172.63138    2210.7577 
   64900    932.37365    73.909932      2204118          147  0.007193656    128.99447    2335.7021 
   65000    929.01958    76.510994      2204118          147  0.007193656    150.43559    2349.2049 
   65100    892.92909    72.513442      2204118          147  0.007193656    132.95431     2246.306 
   65200    864.94933    72.200859      2204118          147  0.007193656    140.85899    2187.9892 
   65300    902.30938    71.786954      2204118          147  0.007193656    123.90525    2259.4579 
   65400    929.16952    73.346724      2204118          147  0.007193656    124.82449    2323.9487 
   65500    899.58652    74.978125      2204118          147  0.007193656     147.4134    2276.5216 
   65600    881.60824    72.610684      2204118          147  0.007193656    136.78884    2223.3468 
   65700    900.83148    69.417266      2204118          147  0.007193656    106.76388    2238.8186 
   65800     901.1872    72.931448      2204118          147  0.007193656    132.72504    2265.6217 
   65900    897.15207    77.126246      2204118          147  0.007193656     164.1034    2287.4499 
   66000    908.73237    77.930157      2204118          147  0.007193656    164.81113    2315.5654 
   66100    907.85615    76.575455      2204118          147  0.007193656    153.97966    2302.6602 
   66200     878.6733    79.177646      2204118          147  0.007193656    185.17542     2264.787 
   66300    905.50822    75.301711      2204118          147  0.007193656    147.54713    2290.6707 
   66400     912.1701    74.503583      2204118          147  0.007193656    139.68484    2298.5754 
   66500    877.21758    79.642192      2204118          147  0.007193656    191.51602    2267.6823 
   66600    913.79247    74.739835      2204118          147  0.007193656    142.42058     2305.151 
   66700    915.60236    73.026483      2204118          147  0.007193656    129.82485    2296.8388 
   66800    879.20677    73.132611      2204118          147  0.007193656    143.14647    2224.0207 
   66900    888.92708    71.213231      2204118          147  0.007193656    124.92951    2228.8094 
   67000    899.80307    76.417158      2204118          147  0.007193656    159.68064    2289.3014 
   67100    918.25796    79.935159      2204118          147  0.007193656    180.39113    2353.6902 
   67200    933.30612    71.868308      2204118          147  0.007193656    115.81757    2324.7321 
   67300    877.12193    68.092572      2204118          147  0.007193656    108.80548    2184.7454 
   67400     856.8985     69.81585      2204118          147  0.007193656    128.91519     2156.991 
   67500    903.68115    75.159262      2204118          147  0.007193656    149.91628    2288.7156 
   67600    925.42064    83.419679      2204118          147  0.007193656    202.08364    2392.3351 
   67700    918.45095    82.085162      2204118          147  0.007193656    193.73619    2367.4921 
   67800    899.35912    72.652589      2204118          147  0.007193656    130.72707    2259.2971 
   67900    862.57074    72.645263      2204118          147  0.007193656    145.06702    2186.5677 
   68000    893.88867    73.252292      2204118          147  0.007193656    137.76905    2253.3918 
   68100    929.64123    76.482864      2204118          147  0.007193656    148.42243    2348.6631 
   68200    916.48369    78.084884      2204118          147  0.007193656    166.28851    2335.3884 
   68300    891.88114    71.136972      2204118          147  0.007193656    125.32466    2236.1961 
   68400    862.30695    71.787438      2204118          147  0.007193656    141.97818    2182.8545 
   68500    920.34292    70.936169      2204118          147  0.007193656    114.99808    2293.2318 
   68600    935.77407    70.963537      2204118          147  0.007193656    109.32696    2324.0826 
   68700    897.19917    73.523403      2204118          147  0.007193656    140.57471    2264.0327 
   68800    888.86316    74.955474      2204118          147  0.007193656    152.59736     2256.326 
   68900    911.16187     75.85499      2204118          147  0.007193656    150.61478    2307.1191 
   69000    943.83147    75.501567      2204118          147  0.007193656    136.54987    2370.3754 
   69100    894.91739    72.927929      2204118          147  0.007193656    135.83486    2253.8924 
   69200    863.45547     71.09812      2204118          147  0.007193656    134.89539      2178.49 
   69300    907.02474    70.949984      2204118          147  0.007193656    119.41445    2266.1272 
   69400    928.41277    71.461053      2204118          147  0.007193656    115.49195    2312.8251 
   69500    886.19043    71.972361      2204118          147  0.007193656    132.20273    2229.6056 
   69600    845.00997    75.640158      2204118          147  0.007193656    172.82787    2172.7664 
   69700    929.40116     79.84095      2204118          147  0.007193656    172.73814    2372.4106 
   69800    937.59354    78.547023      2204118          147  0.007193656    160.80292    2379.8648 
   69900    892.38413    72.409247      2204118          147  0.007193656    131.23479    2243.2967 
   70000    865.50713    74.257927      2204118          147  0.007193656    155.97102    2204.4214 
   70100    922.56484    71.235314      2204118          147  0.007193656    113.28779    2296.7803 
   70200    916.64763    75.450984      2204118          147  0.007193656    146.80847    2316.2963 
   70300    866.20241    71.936684      2204118          147  0.007193656     137.9687    2188.0647 
   70400    840.14309    69.615835      2204118          147  0.007193656    129.95986    2118.3796 
   70500    884.91608    73.843918      2204118          147  0.007193656    144.76985    2239.1567 
   70600    904.62798    75.794698      2204118          147  0.007193656    153.48091    2294.5211 
   70700    897.27179    78.668036      2204118          147  0.007193656    180.07653    2303.7064 
   70800    898.97844     74.84429      2204118          147  0.007193656    151.44445    2279.1135 
   70900    874.43024    71.580621      2204118          147  0.007193656    136.38415    2205.9535 
   71000    864.66298      70.9676      2204118          147  0.007193656    134.84745       2181.3 
   71100    929.14627    73.367535      2204118          147  0.007193656    127.21736    2326.2865 
   71200     921.0462    78.910199      2204118          147  0.007193656    169.24936    2349.1476 
   71300    895.16776    77.779811      2204118          147  0.007193656    169.02117    2287.6713 
   71400    878.97657    74.872168      2204118          147  0.007193656    152.55319    2232.8826 
   71500    858.52781    78.141593      2204118          147  0.007193656    185.80005    2217.7321 
   71600    936.37411    74.480859      2204118          147  0.007193656    130.13056    2346.3063 
   71700    910.29717    79.968384      2204118          147  0.007193656    181.73018     2336.188 
   71800    888.70484    72.733089      2204118          147  0.007193656    135.96234    2239.3162 
   71900    874.75796    70.487503      2204118          147  0.007193656    126.22515    2196.5701 
   72000    913.54796    74.551301      2204118          147  0.007193656    143.27316    2305.4248 
   72100    953.29471    78.251951      2204118          147  0.007193656    156.58172    2412.8045 
   72200    919.78479     74.64938      2204118          147  0.007193656    141.31182    2318.2246 
   72300    890.97992    73.675374      2204118          147  0.007193656    143.94382    2252.6823 
   72400    888.79596    74.990991      2204118          147  0.007193656    153.97777    2257.5473 
   72500    918.89583     77.34652      2204118          147  0.007193656    159.76475    2334.5736 
   72600    948.94811    80.913924      2204118          147  0.007193656    174.47275    2420.4082 
   72700    908.74152    78.224439      2204118          147  0.007193656     169.1818    2319.9578 
   72800    876.86992    71.817703      2204118          147  0.007193656    134.65283    2209.9963 
   72900      887.895    72.373263      2204118          147  0.007193656    136.09705    2237.5342 
   73000     930.6328    73.208882      2204118          147  0.007193656    126.90829    2329.4957 
   73100    915.97891    76.198232      2204118          147  0.007193656    154.64184     2322.547 
   73200    843.29581    74.219023      2204118          147  0.007193656    166.58617    2162.4676 
   73300    879.21052    71.191565      2204118          147  0.007193656     130.9952    2211.8783 
   73400    902.18533    74.133359      2204118          147  0.007193656    144.62522    2279.8842 
   73500    903.31668    77.247495      2204118          147  0.007193656    166.60774    2304.5444 
   73600    921.54606    71.604318      2204118          147  0.007193656    116.47969     2297.561 
   73700    844.76119    73.750837      2204118          147  0.007193656    160.59236     2159.942 
   73800    860.76611    69.236041      2204118          147  0.007193656    120.58126    2157.8108 
   73900    927.77963    73.275622      2204118          147  0.007193656    127.13901    2322.9737 
   74000    910.08383     73.26666      2204118          147  0.007193656    133.59342    2287.5463 
   74100    883.04415    71.026337      2204118          147  0.007193656    127.09109    2217.0475 
   74200    885.30709    69.127044      2204118          147  0.007193656    111.69255    2207.0048 
   74300    915.45323    74.466026      2204118          147  0.007193656    139.89914    2306.5601 
   74400    946.06043     76.55622      2204118          147  0.007193656    143.76232    2382.8633 
   74500    893.67135     74.74183      2204118          147  0.007193656     149.7082    2264.8167 
   74600    893.36611    69.922931      2204118          147  0.007193656    113.21931    2227.6053 
   74700     885.8826    75.096658      2204118          147  0.007193656    154.79711    2251.4714 
   74800    916.57315    76.832739      2204118          147  0.007193656    156.23826    2325.5498 
   74900    933.58101    74.904894      2204118          147  0.007193656    136.47499    2346.0402 
   75000    864.74429      69.9228      2204118          147  0.007193656    125.15228    2171.7972 
   75100    851.13648    73.862479      2204118          147  0.007193656    160.18396    2174.6224 
   75200    915.19907    72.679993      2204118          147  0.007193656    127.27404    2293.3335 
   75300     914.7207    74.030606      2204118          147  0.007193656    137.96164    2302.8889 
   75400    890.14921    74.870099      2204118          147  0.007193656    154.06067     2260.833 
   75500    895.50217    69.377852      2204118          147  0.007193656    112.48989    2231.9315 
   75600     862.6636    69.948453      2204118          147  0.007193656    129.20323    2170.9237 
   75700      880.331    73.376695      2204118          147  0.007193656    147.62456    2231.1595 
   75800    930.29097    74.578023      2204118          147  0.007193656    137.57738    2339.3558 
   75900    893.78738    78.940825      2204118          147  0.007193656    182.34425    2297.7273 
[...]
  381700    921.64819    75.348794      2204118          147  0.007193656    147.49522    2328.8182 
  381800     942.1129    71.559471      2204118          147  0.007193656    112.71257    2342.4707 
  381900    898.29245    67.974027      2204118          147  0.007193656    101.86075    2227.9062 
  382000    870.25324    70.739299      2204118          147  0.007193656    130.64083    2190.3242 
  382100    892.48492    77.401522      2204118          147  0.007193656    170.41179    2282.7122 
  382200    940.18977    73.591157      2204118          147  0.007193656    123.98713    2349.1937 
  382300    901.53606     74.95217      2204118          147  0.007193656    148.59824    2282.3206 
  382400    882.21519    75.271977      2204118          147  0.007193656    157.26555      2245.26 
  382500    906.14029    73.921401      2204118          147  0.007193656     138.0187    2282.6382 
  382600    934.00853    80.911295      2204118          147  0.007193656    180.64107    2391.2181 
  382700    966.60587    80.247038      2204118          147  0.007193656    163.63629    2451.3635 
  382800     894.8825    73.828573      2204118          147  0.007193656    142.11197    2260.0869 
  382900    893.72172    70.342065      2204118          147  0.007193656    116.54869    2231.7763 
  383000    897.82208    71.773477      2204118          147  0.007193656    125.12667    2250.0589 
  383100    900.88163    77.799068      2204118          147  0.007193656    167.65514    2299.8286 
  383200    933.56441    80.550417      2204118          147  0.007193656    175.51189    2385.0378 
  383300    924.92327    78.294244      2204118          147  0.007193656    162.32776    2351.4021 
  383400    863.31251    74.648168      2204118          147  0.007193656     158.0994    2201.3557 
  383500    886.90219    74.165544      2204118          147  0.007193656    147.03944    2246.1269 
  383600    914.64753    75.798232      2204118          147  0.007193656    150.26973    2315.0238 
  383700    903.46574    77.227151      2204118          147  0.007193656    164.86171    2303.1512 
  383800    885.05665    74.769421      2204118          147  0.007193656     153.7741    2248.4936 
  383900    839.89172    71.720195      2204118          147  0.007193656    148.58691    2136.4117 
  384000    882.86291     71.49355      2204118          147  0.007193656    132.33946    2221.8669 
  384100    930.51422    71.474668      2204118          147  0.007193656    114.77648    2317.0833 
  384200    880.83099    79.044083      2204118          147  0.007193656    188.90032    2273.6187 
  384300    897.53375    73.564223      2204118          147  0.007193656    139.86916     2264.119 
  384400    908.05731    78.887537      2204118          147  0.007193656    176.91798    2326.0746 
  384500    964.95088    73.638194      2204118          147  0.007193656    117.39373    2401.2039 
  384600    896.29113    71.212652      2204118          147  0.007193656    125.10996    2246.4188 
  384700    877.75507    70.358145      2204118          147  0.007193656    124.51944    2201.9578 
  384800    888.43188    76.495021      2204118          147  0.007193656    165.76205    2268.4699 
  384900    934.23647    76.026444      2204118          147  0.007193656    143.88907    2355.0055 
  385000    898.58093    80.371164      2204118          147  0.007193656    188.09962    2314.8279 
  385100    879.55155    80.123168      2204118          147  0.007193656    192.86014    2274.5504 
  385200    921.33269    73.203672      2204118          147  0.007193656    126.48432    2307.0606 
  385300    907.95882    76.450572      2204118          147  0.007193656    155.75256    2304.6761 
  385400    877.50182    78.284958      2204118          147  0.007193656    180.82955    2257.6686 
  385500    911.53105    73.182132      2204118          147  0.007193656     131.7483    2289.1264 
  385600    905.51874    78.026438      2204118          147  0.007193656    171.06312    2314.2115 
  385700    915.26351    71.768498      2204118          147  0.007193656    120.62199     2286.834 
  385800    868.04049    69.707105      2204118          147  0.007193656     123.6007     2178.047 
  385900     866.1226    70.970201      2204118          147  0.007193656    133.74001    2183.6471 
  386000    924.73327     74.98055      2204118          147  0.007193656    143.01367    2331.6383 
  386100    925.65272    72.310249      2204118          147  0.007193656    123.11637    2313.9171 
  386200    891.68293     70.77035      2204118          147  0.007193656    123.62391    2234.0262 
  386300    889.28887    68.689135      2204118          147  0.007193656    108.04688     2212.783 
  386400    898.57978    73.142165      2204118          147  0.007193656    136.76107    2263.4866 
  386500    958.56517    78.994121      2204118          147  0.007193656    156.44624     2425.143 
  386600    939.50947     76.01217      2204118          147  0.007193656    141.18326    2364.7797 
  386700    893.81409    72.404601      2204118          147  0.007193656    131.85746    2247.3037 
  386800    884.17546    74.234005      2204118          147  0.007193656    149.18417    2241.8181 
  386900    913.18481    73.749051      2204118          147  0.007193656    134.99215    2296.2843 
  387000    919.48479    77.078195      2204118          147  0.007193656    157.99383    2334.1966 
  387100    906.53822    75.219284      2204118          147  0.007193656    149.31207    2294.8734 
  387200    865.95381    70.454935      2204118          147  0.007193656    128.39662    2177.9042 
  387300    864.70534     74.96687      2204118          147  0.007193656    163.06795    2209.6207 
  387400    928.72962    74.726537      2204118          147  0.007193656    138.34073    2336.4238 
  387500    917.46662    73.666518      2204118          147  0.007193656    135.35064    2306.7768 
  387600    883.44961    74.271529      2204118          147  0.007193656    152.38431    2243.3003 
  387700    886.86292    74.970791      2204118          147  0.007193656    156.27819    2255.2727 
  387800    960.36478    75.610053      2204118          147  0.007193656    133.99681    2406.9528 
  387900    948.75445    75.219395      2204118          147  0.007193656    134.01106    2379.4882 
  388000    879.41902    78.191699      2204118          147  0.007193656    180.11319    2261.4898 
  388100    908.41335    74.726349      2204118          147  0.007193656    143.05927    2293.0586 
  388200    910.61439    77.742641      2204118          147  0.007193656    165.83176    2321.0404 
  388300    894.29478    78.547392      2204118          147  0.007193656    177.89245    2294.4764 
  388400    880.57456    75.300672      2204118          147  0.007193656    159.75116    2243.8626 
  388500    897.90255     72.38455      2204118          147  0.007193656    134.17249    2259.2952 
  388600    937.51338    70.310217      2204118          147  0.007193656    105.97554    2324.8477 
  388700    907.50981    68.456893      2204118          147  0.007193656    103.36718     2251.228 
  388800    857.08529    69.269799      2204118          147  0.007193656    126.55038    2155.0683 
  388900    878.23236    75.157244      2204118          147  0.007193656    163.00765    2241.5757 
  389000    916.50599    73.078771      2204118          147  0.007193656     132.5066    2301.6592 
  389100    899.83626    75.299189      2204118          147  0.007193656    153.89431    2283.5936 
  389200    887.60624    77.195063      2204118          147  0.007193656    171.86808    2272.6218 
  389300    925.47623    74.834114      2204118          147  0.007193656    139.98192     2330.365 
  389400    932.18755    76.935909      2204118          147  0.007193656    153.96768    2360.2348 
  389500    887.31366    72.980573      2204118          147  0.007193656    141.23652    2241.2978 
  389600    875.92149    69.411734      2204118          147  0.007193656    119.21106    2192.3098 
  389700    902.40379    71.193536      2204118          147  0.007193656    123.01312    2258.7892 
  389800    937.16579     74.16842      2204118          147  0.007193656    131.51295    2349.5624 
  389900    924.83535    76.811315      2204118          147  0.007193656     153.9644    2342.8306 
  390000     866.3514    74.438371      2204118          147  0.007193656    156.98579    2207.4344 
  390100    881.90995    73.141308      2204118          147  0.007193656    142.74112    2230.0131 
  390200    928.25802    74.045328      2204118          147  0.007193656    133.15846    2330.1254 
  390300    907.66403    76.047862      2204118          147  0.007193656    154.73733    2302.9631 
  390400     855.7849    73.366843      2204118          147  0.007193656    152.24803    2177.6882 
  390500     854.9949    72.085635      2204118          147  0.007193656    143.69711    2167.2676 
  390600    942.53238     73.91467      2204118          147  0.007193656    126.27872    2357.0297 
  390700     915.1996    75.661517      2204118          147  0.007193656    149.52455    2315.5853 
  390800    870.69976    75.868932      2204118          147  0.007193656    167.77778    2228.5179 
  390900     885.4568    75.023553      2204118          147  0.007193656    156.13038    2251.7969 
  391000    944.25129    77.316478      2204118          147  0.007193656     151.4908      2386.31 
  391100    932.28737    76.873848      2204118          147  0.007193656    151.55139    2358.0548 
  391200    876.03804    77.848595      2204118          147  0.007193656    177.98282    2251.3574 
  391300    881.99887    81.129601      2204118          147  0.007193656    200.47918    2287.9616 
  391400    929.52371     78.74575      2204118          147  0.007193656    165.63726    2365.5997 
  391500    919.84079    75.366167      2204118          147  0.007193656     143.7569    2320.8022 
  391600    866.71323    73.107955      2204118          147  0.007193656    146.58519    2197.8902 
  391700    879.45428    73.669775      2204118          147  0.007193656    147.06211    2228.5221 
  391800    903.32862    74.064724      2204118          147  0.007193656    140.74972    2278.7146 
  391900    891.42225    80.737245      2204118          147  0.007193656    195.24476    2305.0301 
  392000     919.2188    77.170116      2204118          147  0.007193656    158.66236    2334.2356 
  392100    878.23952    75.580575      2204118          147  0.007193656    163.04818    2241.6331 
  392200    841.76545    69.263346      2204118          147  0.007193656    130.37132    2122.6308 
  392300    884.40812    69.999649      2204118          147  0.007193656    121.72776    2214.9123 
  392400    901.64907    73.246402      2204118          147  0.007193656    140.58243    2274.5722 
  392500     905.0661     74.15446      2204118          147  0.007193656    146.03458    2288.1117 
  392600    902.73528    72.423675      2204118          147  0.007193656    133.60107    2270.1617 
  392700    862.36056    71.858982      2204118          147  0.007193656    143.95922    2184.9625 
  392800    870.96707    69.253839      2204118          147  0.007193656     120.4391    2181.8119 
  392900    927.90453     72.27892      2204118          147  0.007193656    120.87363    2317.0039 
  393000     912.5421    77.248576      2204118          147  0.007193656    163.51622    2323.2873 
  393100    903.21173     70.28183      2204118          147  0.007193656    116.48459    2254.1728 
  393200    861.18464    65.882995      2204118          147  0.007193656    100.37002    2138.5901 
  393300    821.83722    65.914567      2204118          147  0.007193656    114.75751    2059.8516 
  393400    891.49482    68.699166      2204118          147  0.007193656    110.07407    2220.0312 
  393500    921.13191    73.922125      2204118          147  0.007193656    138.85544    2318.9565 
  393600    917.49439    71.196822      2204118          147  0.007193656    118.34885    2289.8408 
  393700    860.03299    73.481458      2204118          147  0.007193656     156.3913    2191.8857 
  393800    891.74833    71.732138      2204118          147  0.007193656    131.85152    2242.4086 
  393900    927.30403    75.100664      2204118          147  0.007193656    145.05682    2339.7659 
  394000    925.99769    69.237724      2204118          147  0.007193656    100.63952    2292.2568 
  394100    881.04795    71.563778      2204118          147  0.007193656    134.02137    2219.2532 
  394200    895.39505    71.836163      2204118          147  0.007193656    129.04265    2248.2307 
  394300    913.46264    74.318366      2204118          147  0.007193656    139.33509    2301.2848 
  394400    907.52442    79.656219      2204118          147  0.007193656    181.17317    2329.0685 
  394500    911.02797    77.003789      2204118          147  0.007193656    160.71061    2316.8981 
  394600    871.80243    73.581354      2204118          147  0.007193656    150.76202    2214.1119 
  394700    868.77752    73.046476      2204118          147  0.007193656    149.34649    2205.5371 
  394800    928.12781    74.864066      2204118          147  0.007193656     141.8952    2338.5539 
  394900     932.6771    73.268509      2204118          147  0.007193656     127.0606    2334.4864 
  395000    892.65434    74.495486      2204118          147  0.007193656    149.30923    2262.0106 
  395100    901.00092    73.460915      2204118          147  0.007193656     137.1144    2269.5702 
  395200    902.69775    74.786973      2204118          147  0.007193656    144.95724     2281.429 
  395300    897.00767    75.945245      2204118          147  0.007193656    153.31924     2276.324 
  395400    899.97588    78.115304      2204118          147  0.007193656    168.15053    2298.1803 
  395500    920.12319    78.353994      2204118          147  0.007193656    162.31941    2340.0331 
  395600    895.69366    79.872076      2204118          147  0.007193656    183.21031    2303.1051 
  395700    873.52659    76.411255      2204118          147  0.007193656    166.29884    2233.7294 
  395800    883.22276    74.589808      2204118          147  0.007193656    150.22841    2240.6075 
  395900    942.41505    75.746428      2204118          147  0.007193656     137.4605    2367.9337 
  396000    925.19073    78.026291      2204118          147  0.007193656    160.48755    2350.1949 
  396100    870.64577    75.138403      2204118          147  0.007193656    158.35116    2218.9635 
  396200    868.88523     77.19348      2204118          147  0.007193656    174.44146     2230.887 
  396300    908.89334    74.595372      2204118          147  0.007193656    140.15524    2291.2905 
  396400     908.1594    77.154703      2204118          147  0.007193656    160.17738    2309.5756 
  396500    903.28281    75.575675      2204118          147  0.007193656    151.84152     2289.698 
  396600     870.2895    69.046968      2204118          147  0.007193656      117.688    2177.4571 
  396700    863.57919    65.397362      2204118          147  0.007193656    93.737617    2137.6251 
  396800     891.6431    75.603946      2204118          147  0.007193656    159.84155    2270.1496 
  396900    914.12612    78.517442      2204118          147  0.007193656     173.5037    2337.0237 
  397000    911.02801    74.063369      2204118          147  0.007193656    141.18852    2297.3761 
  397100    876.63102    74.474965      2204118          147  0.007193656    156.61547    2231.3935 
  397200    897.09445     74.89472      2204118          147  0.007193656    151.74511    2274.9552 
  397300    967.28381    77.947574      2204118          147  0.007193656    148.45106    2437.7828 
  397400    925.81569    76.646757      2204118          147  0.007193656    153.45104    2344.6375 
  397500    895.45601    74.657242      2204118          147  0.007193656     150.2284    2269.5607 
  397600    895.12533    72.310708      2204118          147  0.007193656    134.13819    2252.6879 
  397700     893.1326    73.265044      2204118          147  0.007193656    142.70755    2256.5409 
  397800     925.1653     72.83119      2204118          147  0.007193656    127.76616    2317.4133 
  397900    927.88779    75.322953      2204118          147  0.007193656     145.0431    2341.1338 
  398000    877.43327    72.819707      2204118          147  0.007193656    142.95066    2219.6274 
  398100    857.09438    77.213806      2204118          147  0.007193656    184.20892    2212.7483 
  398200    928.59431    71.466621      2204118          147  0.007193656    115.41994    2313.1828 
  398300     910.1505    73.116743      2204118          147  0.007193656    135.09524    2289.2059 
  398400    889.66097    74.374854      2204118          147  0.007193656    151.94356    2257.5604 
  398500     897.7185    73.074687      2204118          147  0.007193656     138.8795    2263.5666 
  398600    916.27511    74.464297      2204118          147  0.007193656    142.26066    2310.8669 
  398700    937.67124     74.31996      2204118          147  0.007193656    133.19969    2352.4455 
  398800    891.42202     71.30214      2204118          147  0.007193656     126.1462     2235.931 
  398900    855.44942    74.789778      2204118          147  0.007193656    164.19814    2188.8443 
  399000    903.70668    76.390171      2204118          147  0.007193656    157.10309    2295.9628 
  399100     925.0178    76.679686      2204118          147  0.007193656    149.89392     2339.192 
  399200    897.29804    79.288086      2204118          147  0.007193656    178.76231    2302.4543 
  399300    885.45398    81.003667      2204118          147  0.007193656    196.26248    2291.9224 
  399400    925.61659    75.282499      2204118          147  0.007193656    139.16722    2329.8825 
  399500     915.9468    77.324197      2204118          147  0.007193656     158.8264    2326.6556 
  399600    870.15286     77.46423      2204118          147  0.007193656     177.6976    2237.1434 
  399700    890.59495    73.695436      2204118          147  0.007193656    144.86007    2252.6874 
  399800    934.41089    71.841226      2204118          147  0.007193656     117.0877     2328.617 
  399900    903.39202    70.574076      2204118          147  0.007193656    117.59097     2255.706 
  400000    833.71628     74.86714      2204118          147  0.007193656    172.66818    2145.8772 
  400100    876.97444    77.072222      2204118          147  0.007193656    172.26085    2247.8517 
Loop time of 58.0734 on 1 procs for 400000 steps with 795 atoms

Performance: 148.777 ns/day, 0.161 hours/ns, 6887.839 timesteps/s
96.9% CPU use with 1 MPI tasks x no OpenMP threads

MPI task timing breakdown:
Section |  min time  |  avg time  |  max time  |%varavg| %total
---------------------------------------------------------------
Pair    | 27.169     | 27.169     | 27.169     |   0.0 | 46.78
Neigh   | 9.6982     | 9.6982     | 9.6982     |   0.0 | 16.70
Comm    | 2.1946     | 2.1946     | 2.1946     |   0.0 |  3.78
Output  | 3.0842     | 3.0842     | 3.0842     |   0.0 |  5.31
Modify  | 14.354     | 14.354     | 14.354     |   0.0 | 24.72
Other   |            | 1.573      |            |       |  2.71

Nlocal:            795 ave         795 max         795 min
Histogram: 1 0 0 0 0 0 0 0 0 0
Nghost:            168 ave         168 max         168 min
Histogram: 1 0 0 0 0 0 0 0 0 0
Neighs:           1602 ave        1602 max        1602 min
Histogram: 1 0 0 0 0 0 0 0 0 0

Total # of neighbors = 1602
Ave neighs/atom = 2.0150943
Neighbor list builds = 14319
Dangerous builds = 17

write_data graphene_single_layer_LJ_795C_after_temp_900K.data
System init for write_data ...
  generated 0 of 0 mixed pair_coeff terms from geometric mixing rule
Total wall time: 0:00:58
