# System definition
read_data graphene_single_layer_x-45_y-45_795_C.data
Reading data file ...
  orthogonal box = (-51 -51 -51) to (96 96 51)
  1 by 1 by 1 MPI processor grid
  reading atoms ...
  795 atoms
  read_data CPU = 0.011 seconds
pair_style lj/cut 6
pair_coeff      1 1 0.066047 3.4

# Virtual force wall to keep the cylinder shape
#region myCylinder cylinder z 0. 0. 20.3 -22.079997 505.920003 units box
#fix wall all wall/region myCylinder lj93 1.0 1.0 2.5

# Minimization
timestep 0.25
thermo 100
thermo_style custom step temp press vol lx density pe etotal
dump 2 all custom 1000 graphene_single_layer_LJ_795C_after_temp_1100K.lammpstrj id type x y z
min_style cg
minimize 1.0e-6 1.0e-6 100 1000
WARNING: Using 'neigh_modify every 1 delay 0 check yes' setting during minimization (../min.cpp:187)
  generated 0 of 0 mixed pair_coeff terms from geometric mixing rule
Neighbor list info ...
  update every 1 steps, delay 0 steps, check yes
  max neighbors/atom: 10000, page size: 100000
  master list distance cutoff = 6.4
  ghost atom cutoff = 6.4
  binsize = 3.2, bins = 46 46 32
  1 neighbor lists, perpetual/occasional/extra = 1 0 0
  (1) pair lj/cut, perpetual
      attributes: half, newton on
      pair build: half/bin/atomonly/newton
      stencil: half/bin/3d
      bin: standard
Per MPI rank memory allocation (min/avg/max) = 5.96 | 5.96 | 5.96 Mbytes
Step Temp Press Volume Lx Density PotEng TotEng 
       0            0    1335313.5      2204118          147  0.007193656     10699602     10699602 
     100            0     61841.43      2204118          147  0.007193656    488621.59    488621.59 
Loop time of 0.0593519 on 1 procs for 100 steps with 795 atoms

100.0% CPU use with 1 MPI tasks x no OpenMP threads

Minimization stats:
  Stopping criterion = max iterations
  Energy initial, next-to-last, final = 
      10699602.3573369   495470.853828546   488621.590421788
  Force two-norm initial, final = 694694.42 29375.63
  Force max component initial, final = 79169.705 9280.0147
  Final line search alpha, max atom move = 3.8811533e-05 0.36017159
  Iterations, force evaluations = 100 117

MPI task timing breakdown:
Section |  min time  |  avg time  |  max time  |%varavg| %total
---------------------------------------------------------------
Pair    | 0.038257   | 0.038257   | 0.038257   |   0.0 | 64.46
Neigh   | 0.017498   | 0.017498   | 0.017498   |   0.0 | 29.48
Comm    | 0.0003601  | 0.0003601  | 0.0003601  |   0.0 |  0.61
Output  | 7.41e-05   | 7.41e-05   | 7.41e-05   |   0.0 |  0.12
Modify  | 0          | 0          | 0          |   0.0 |  0.00
Other   |            | 0.003162   |            |       |  5.33

Nlocal:            795 ave         795 max         795 min
Histogram: 1 0 0 0 0 0 0 0 0 0
Nghost:              0 ave           0 max           0 min
Histogram: 1 0 0 0 0 0 0 0 0 0
Neighs:          13073 ave       13073 max       13073 min
Histogram: 1 0 0 0 0 0 0 0 0 0

Total # of neighbors = 13073
Ave neighs/atom = 16.444025
Neighbor list builds = 35
Dangerous builds = 0
#timestep 0.25
fix 1 all nvt temp 1100.0 1100.0 $(100.0*dt)
fix 1 all nvt temp 1100.0 1100.0 25
run 400000
  generated 0 of 0 mixed pair_coeff terms from geometric mixing rule
Per MPI rank memory allocation (min/avg/max) = 4.835 | 4.835 | 4.835 Mbytes
Step Temp Press Volume Lx Density PotEng TotEng 
     100            0     61841.43      2204118          147  0.007193656    488621.59    488621.59 
     200    31800.267    20626.247      2204118          147  0.007193656     148445.7    223709.41 
     300    9837.1103    9009.8122      2204118          147  0.007193656    65296.879     88578.99 
     400    4822.3565    5512.5383      2204118          147  0.007193656    39836.805    51250.181 
     500    3032.8314     3876.119      2204118          147  0.007193656    27785.261    34963.254 
     600    2191.2298    2922.3542      2204118          147  0.007193656    20722.256    25908.378 
     700    1723.5995    2298.1616      2204118          147  0.007193656        16094    20173.352 
     800    1445.6853    1857.3571      2204118          147  0.007193656    12823.838    16245.432 
     900     1273.333    1529.9677      2204118          147  0.007193656     10395.92    13409.598 
    1000    1170.3813    1277.1126      2204118          147  0.007193656    8520.0227    11290.038 
    1100    1113.4662    1076.7973      2204118          147  0.007193656    7033.6797    9668.9906 
    1200    1090.4067    913.56577      2204118          147  0.007193656    5821.4231    8402.1576 
    1300    1084.3818    778.44051      2204118          147  0.007193656    4819.8102    7386.2851 
    1400    1082.5426     665.6676      2204118          147  0.007193656    3988.9378    6551.0598 
    1500    1080.4315    571.77834      2204118          147  0.007193656    3303.3775    5860.5031 
    1600    1083.0427    492.80446      2204118          147  0.007193656    2730.1642    5293.4699 
    1700     1087.792    425.72354      2204118          147  0.007193656    2246.8248    4821.3709 
    1800    1088.2246    368.85479      2204118          147  0.007193656    1842.7077    4418.2776 
    1900    1086.8912    320.79384      2204118          147  0.007193656    1505.7574    4078.1716 
    2000    1089.1896    280.23328      2204118          147  0.007193656    1223.9402    3801.7941 
    2100    1093.6179    245.91726      2204118          147  0.007193656    988.12665    3576.4612 
    2200    1095.1184    216.63477      2204118          147  0.007193656    790.50893    3382.3947 
    2300    1093.3233    191.64168      2204118          147  0.007193656    625.56158     3213.199 
    2400    1093.1871    170.43316      2204118          147  0.007193656    487.48085    3074.7958 
    2500    1096.3928     152.4669      2204118          147  0.007193656    371.49588     2966.398 
    2600    1098.6858    137.10366      2204118          147  0.007193656    274.43662    2874.7657 
    2700    1097.3795    123.84027      2204118          147  0.007193656    193.73459    2790.9719 
    2800    1095.6756    112.47483      2204118          147  0.007193656    126.59224    2719.7968 
    2900    1097.1098    102.93898      2204118          147  0.007193656    71.399815    2667.9989 
    3000    1099.8364    94.884762      2204118          147  0.007193656    25.953647    2629.0059 
    3100    1099.8274    87.926455      2204118          147  0.007193656   -10.998481    2592.0324 
    3200    1097.6173    81.917124      2204118          147  0.007193656   -40.682654    2557.1177 
    3300    1097.3593    76.902688      2204118          147  0.007193656   -64.221023    2532.9686 
    3400    1099.8137    72.774762      2204118          147  0.007193656   -82.761555     2520.237 
    3500    1101.1133    69.213651      2204118          147  0.007193656   -97.471013    2508.6035 
    3600    1099.2965    66.024904      2204118          147  0.007193656   -109.15542    2492.6191 
    3700    1097.6357    63.280278      2204118          147  0.007193656   -118.51409    2479.3296 
    3800    1099.0997    61.070027      2204118          147  0.007193656   -125.74086    2475.5679 
    3900    1101.3684    59.219369      2204118          147  0.007193656   -131.24507    2475.4331 
    4000    1100.7258    57.513299      2204118          147  0.007193656   -135.13331     2470.024 
    4100    1098.3443    55.973217      2204118          147  0.007193656   -137.68524    2461.8355 
    4200     1098.316    54.776135      2204118          147  0.007193656   -138.99067    2460.4632 
    4300    1100.7633    53.897141      2204118          147  0.007193656   -139.25011     2465.996 
    4400    1101.6241    53.104731      2204118          147  0.007193656   -138.72148    2468.5619 
    4500    1099.4955    52.308076      2204118          147  0.007193656   -137.53792    2464.7076 
    4600    1098.0221    51.667967      2204118          147  0.007193656   -135.78122     2462.977 
    4700     1099.733     51.28496      2204118          147  0.007193656   -133.62897    2469.1787 
    4800    1101.7862    51.006384      2204118          147  0.007193656   -131.11571    2476.5514 
    4900    1100.7379    50.645981      2204118          147  0.007193656   -128.39227    2476.7937 
    5000    1098.3781    50.283771      2204118          147  0.007193656   -125.48832    2474.1125 
    5100    1098.7046    50.108516      2204118          147  0.007193656   -122.43716    2477.9364 
    5200    1101.1866    50.085945      2204118          147  0.007193656   -119.29021    2486.9577 
    5300    1101.6474    50.006091      2204118          147  0.007193656   -116.05741    2491.2812 
    5400    1099.3143    49.824957      2204118          147  0.007193656    -112.7775    2489.0391 
    5500    1098.1369    49.729439      2204118          147  0.007193656   -109.50494    2489.5251 
    5600    1100.1115    49.811792      2204118          147  0.007193656   -106.27476    2497.4286 
    5700     1101.919    49.907197      2204118          147  0.007193656   -103.06824    2504.9131 
    5800    1100.5048    49.861276      2204118          147  0.007193656   -99.920042    2504.7142 
    5900    1098.2606    49.789892      2204118          147  0.007193656   -96.820649    2502.5022 
    6000    1098.9775    49.874905      2204118          147  0.007193656   -93.804888    2507.2147 
    6100    1101.4557    50.056303      2204118          147  0.007193656   -90.859121    2516.0257 
    6200    1101.5113    50.126377      2204118          147  0.007193656   -87.997409    2519.0191 
    6300    1099.0462    50.076122      2204118          147  0.007193656   -85.269715    2515.9123 
    6400    1098.2232    50.113704      2204118          147  0.007193656     -82.5941    2516.6402 
    6500    1100.4338    50.302525      2204118          147  0.007193656   -80.034982    2524.4313 
    6600    1101.9527    50.462084      2204118          147  0.007193656   -77.539943     2530.521 
    6700     1100.207    50.464264      2204118          147  0.007193656   -75.129814    2528.7995 
    6800    1098.1443    50.452604      2204118          147  0.007193656   -72.813698    2526.2338 
    6900    1099.2446    50.598941      2204118          147  0.007193656    -70.56287    2531.0888 
    7000    1101.6596    50.810867      2204118          147  0.007193656   -68.393462    2538.9738 
    7100    1101.3077    50.885338      2204118          147  0.007193656   -66.339543    2540.1949 
    7200    1098.7785    50.854222      2204118          147  0.007193656   -64.342156    2536.2063 
    7300    1098.3418    50.923461      2204118          147  0.007193656   -62.452472    2537.0626 
    7400    1100.7374    51.128638      2204118          147  0.007193656   -60.674499    2544.5101 
    7500    1101.9254    51.272812      2204118          147  0.007193656    -58.98081    2549.0156 
    7600    1099.9013    51.258499      2204118          147  0.007193656   -57.358866    2545.8471 
    7700    1098.0815    51.257216      2204118          147  0.007193656   -55.848551    2543.0504 
    7800    1098.2087    51.830838      2204118          147  0.007193656   -50.976279    2548.2238 
    7900    1102.7068    52.496505      2204118          147  0.007193656   -47.160066    2562.6857 
    8000    1106.3738    52.304541      2204118          147  0.007193656   -49.502385    2569.0223 
    8100    1095.1213    53.111443      2204118          147  0.007193656   -39.479119    2552.4136 
    8200    1091.6766    54.302043      2204118          147  0.007193656   -30.330801    2553.4092 
    8300    1097.7578    57.729053      2204118          147  0.007193656   -8.4029892    2589.7297 
    8400    1113.4493    59.258043      2204118          147  0.007193656   -4.4729428    2630.7978 
    8500    1096.6442    63.221057      2204118          147  0.007193656    29.478111    2624.9753 
    8600    1092.6984    64.321186      2204118          147  0.007193656    36.217851    2622.3761 
    8700    1097.3888    69.059838      2204118          147  0.007193656    68.303111    2665.5626 
    8800    1122.3602     69.60091      2204118          147  0.007193656    63.007652    2719.3685 
    8900    1111.2097    66.493837      2204118          147  0.007193656    43.472337    2673.4424 
    9000    1056.2814    71.362023      2204118          147  0.007193656    98.922507    2598.8904 
    9100    1101.1868    70.139363      2204118          147  0.007193656    72.278382    2678.5267 
    9200    1143.7602    68.411046      2204118          147  0.007193656    42.777155    2749.7868 
    9300    1084.1517    72.385718      2204118          147  0.007193656    92.841691    2658.7721 
    9400    1076.0029     69.24551      2204118          147  0.007193656    71.246081    2617.8901 
    9500    1101.3742    70.851772      2204118          147  0.007193656    73.907369    2680.5992 
    9600    1124.4222    73.213024      2204118          147  0.007193656    82.193793    2743.4348 
    9700    1092.2786    78.352725      2204118          147  0.007193656    130.21897    2715.3838 
    9800    1086.7539    78.531494      2204118          147  0.007193656    130.78292     2702.872 
    9900    1102.9358    80.897862      2204118          147  0.007193656    141.54565    2751.9334 
   10000    1129.7998    78.403629      2204118          147  0.007193656    111.59667    2785.5653 
   10100    1084.2155    82.956583      2204118          147  0.007193656    161.96617    2728.0476 
   10200     1090.005    78.839918      2204118          147  0.007193656    127.25551    2707.0392 
   10300    1101.7902    79.575893      2204118          147  0.007193656    129.13828    2736.8149 
   10400    1117.5696    76.622542      2204118          147  0.007193656    100.56586    2745.5883 
   10500    1080.2186    80.017901      2204118          147  0.007193656    137.99315    2694.6148 
   10600    1080.2105    83.463308      2204118          147  0.007193656    162.63098    2719.2333 
   10700      1128.87    82.578593      2204118          147  0.007193656    137.52105     2809.289 
   10800     1113.178    84.555946      2204118          147  0.007193656    158.25559    2792.8843 
   10900    1086.2501    80.677084      2204118          147  0.007193656    139.00813    2709.9048 
   11000     1080.523    77.369054      2204118          147  0.007193656    115.60919    2672.9514 
   11100    1085.5561    82.302929      2204118          147  0.007193656    148.99695    2718.2511 
   11200    1123.3452    84.641238      2204118          147  0.007193656    150.14713    2808.8393 
   11300    1123.3788    85.559373      2204118          147  0.007193656    156.44146     2815.213 
   11400    1097.2838    80.125819      2204118          147  0.007193656    124.74752    2721.7583 
   11500    1061.3835    80.288366      2204118          147  0.007193656    138.62942    2650.6729 
   11600    1099.1359    80.513641      2204118          147  0.007193656    126.08753    2727.4818 
   11700    1123.0369    85.853191      2204118          147  0.007193656    157.17879    2815.1413 
   11800    1124.0554    81.283856      2204118          147  0.007193656    120.00263    2780.3757 
   11900    1053.9054    85.313311      2204118          147  0.007193656    174.63462    2668.9791 
   12000    1092.1567    81.262109      2204118          147  0.007193656    129.58023    2714.4564 
   12100    1128.9266    84.514883      2204118          147  0.007193656    140.78653    2812.6884 
   12200    1116.5072    86.698351      2204118          147  0.007193656    160.83076    2803.3388 
   12300    1088.6153    83.058163      2204118          147  0.007193656    142.80174    2719.2964 
   12400    1058.7058    86.458073      2204118          147  0.007193656    178.65468    2684.3606 
   12500    1114.9282    87.588655      2204118          147  0.007193656    165.33629    2804.1073 
   12600    1130.8021    94.457727      2204118          147  0.007193656    210.20469    2886.5454 
   12700     1087.801     98.16542      2204118          147  0.007193656    250.23941    2824.8068 
   12800    1064.4599      102.843      2204118          147  0.007193656    292.64566    2811.9702 
   12900    1131.2823     102.6498      2204118          147  0.007193656    266.12124    2943.5986 
   13000    1158.7299    101.79148      2204118          147  0.007193656    249.63639    2992.0758 
   13100    1094.4406    96.826993      2204118          147  0.007193656    235.21516    2825.4968 
   13200    1043.0606    95.888226      2204118          147  0.007193656    246.47241    2715.1498 
   13300    1070.3711    103.30497      2204118          147  0.007193656    292.56082    2825.8757 
   13400    1121.1629    113.62285      2204118          147  0.007193656     348.2288     3001.756 
   13500    1149.7112    113.02992      2204118          147  0.007193656    328.32504    3049.4191 
   13600    1093.9947     111.9987      2204118          147  0.007193656    341.12398    2930.3504 
   13700    1058.7353    110.01831      2204118          147  0.007193656    339.72171    2845.4974 
   13800    1103.9301    106.29258      2204118          147  0.007193656    297.11923    2909.8604 
   13900    1123.7672    106.37972      2204118          147  0.007193656    289.36366    2949.0545 
   14000    1111.1089    104.54644      2204118          147  0.007193656    279.35133     2909.083 
   14100     1063.017     109.2734      2204118          147  0.007193656    332.82928    2848.7387 
   14200    1096.3217    106.12624      2204118          147  0.007193656    295.14015    2889.8739 
   14300    1122.8158    107.99292      2204118          147  0.007193656    299.38923    2956.8284 
   14400    1112.1721    108.89541      2204118          147  0.007193656     309.1175    2941.3655 
   14500    1091.8362    108.05915      2204118          147  0.007193656    310.85531    2894.9731 
   14600    1110.7149     100.9106      2204118          147  0.007193656    249.50845    2878.3077 
   14700    1084.8267    102.89025      2204118          147  0.007193656    272.05359    2839.5815 
   14800    1065.4756    112.48727      2204118          147  0.007193656    349.24618    2870.9746 
   14900    1134.7943    116.77319      2204118          147  0.007193656     357.1243    3042.9136 
   15000    1154.8697    116.48874      2204118          147  0.007193656    351.21001     3084.513 
   15100     1090.873    101.99776      2204118          147  0.007193656    265.84491     2847.683 
   15200     1008.656    99.513413      2204118          147  0.007193656    277.38163    2664.6316 
   15300    1079.2804    102.38251      2204118          147  0.007193656    273.28107    2827.6823 
   15400    1203.5687    101.96986      2204118          147  0.007193656    224.87446    3073.4366 
   15500    1102.2445    110.27781      2204118          147  0.007193656    321.34691    2930.0986 
   15600      1026.58    112.38017      2204118          147  0.007193656    361.56213    2791.2338 
   15700    1092.4755    113.31205      2204118          147  0.007193656    343.42976    2929.0606 
   15800    1168.7829    115.29572      2204118          147  0.007193656    332.07011    3098.3024 
   15900    1139.1688    103.96053      2204118          147  0.007193656    258.64324    2954.7861 
   16000    995.32334    107.21117      2204118          147  0.007193656    337.06362    2692.7582 
   16100    1055.6335    103.91291      2204118          147  0.007193656    287.98953     2786.424 
   16200    1167.9985    113.74695      2204118          147  0.007193656    321.35818    3085.7341 
   16300    1173.8347    113.08547      2204118          147  0.007193656     314.1379    3092.3267 
   16400    1059.8396      103.538      2204118          147  0.007193656    283.90306    2792.2925 
   16500    1022.1626    97.876326      2204118          147  0.007193656    257.74439    2676.9611 
   16600    1104.9333    100.40633      2204118          147  0.007193656    248.45604    2863.5716 
   16700    1181.3739    102.12276      2204118          147  0.007193656    232.93847    3028.9707 
   16800    1089.0264    108.10457      2204118          147  0.007193656    312.85394    2890.3215 
   16900    1064.0502    96.828244      2204118          147  0.007193656    236.98643    2755.3413 
   17000    1060.8698    101.15607      2204118          147  0.007193656    270.16812    2780.9956 
   17100    1145.0149    105.39954      2204118          147  0.007193656    270.79577    2980.7748 
   17200    1166.7673       107.91      2204118          147  0.007193656    282.00308     3043.465 
   17300    1090.6424    100.29271      2204118          147  0.007193656    253.06058    2834.3529 
   17400      1015.83    100.18125      2204118          147  0.007193656    280.94605     2685.175 
   17500    1095.2165    98.565214      2204118          147  0.007193656    239.81548    2831.9336 
   17600    1171.2471    102.71925      2204118          147  0.007193656    243.62011    3015.6847 
   17700    1128.7229    100.96635      2204118          147  0.007193656    247.46645    2918.8863 
   17800    1051.6904    92.921381      2204118          147  0.007193656    216.70925    2705.8114 
   17900    1041.9369    93.823861      2204118          147  0.007193656    228.35561    2694.3734 
   18000    1136.4303    95.490348      2204118          147  0.007193656     205.4141    2895.0755 
   18100    1153.4017    100.16701      2204118          147  0.007193656    233.90476    2963.7336 
   18200     1101.073    93.778857      2204118          147  0.007193656    204.74048    2810.7196 
   18300    1032.2034    93.696412      2204118          147  0.007193656    229.57194    2672.5529 
   18400     1098.018    91.639005      2204118          147  0.007193656    190.73148      2789.48 
   18500    1152.7435    97.562864      2204118          147  0.007193656    215.21261    2943.4835 
   18600    1116.2086    97.285545      2204118          147  0.007193656    225.54664     2867.348 
   18700    1065.3585    90.601886      2204118          147  0.007193656    194.92368    2716.3751 
   18800    1075.3892    86.446785      2204118          147  0.007193656    161.94515    2707.1366 
   18900    1113.7312    89.026656      2204118          147  0.007193656    168.49084    2804.4289 
   19000    1129.2346    91.618712      2204118          147  0.007193656    183.51562    2856.1464 
   19100     1104.765    88.071147      2204118          147  0.007193656    166.84694    2781.5641 
   19200    1068.5793    85.001726      2204118          147  0.007193656    157.16671     2686.241 
   19300    1079.9763    86.805633      2204118          147  0.007193656    166.05174    2722.0999 
   19400    1121.3528    91.980682      2204118          147  0.007193656    190.71671    2844.6932 
   19500    1151.4097    85.326205      2204118          147  0.007193656    130.32598      2855.44 
   19600    1057.7253    87.940654      2204118          147  0.007193656    184.81651    2688.2017 
   19700    1066.1625    83.426204      2204118          147  0.007193656    148.13518    2671.4893 
   19800    1117.6778    85.835974      2204118          147  0.007193656    147.36247    2792.6412 
   19900    1127.0412     92.34823      2204118          147  0.007193656    191.55483    2858.9944 
   20000    1112.8896    89.879049      2204118          147  0.007193656    177.39821    2811.3444 
   20100    1072.2894    88.365258      2204118          147  0.007193656    182.13155    2719.9866 
   20200    1093.6144    83.413096      2204118          147  0.007193656    137.80482    2726.1312 
   20300    1106.1941    86.262097      2204118          147  0.007193656    154.63327    2772.7328 
   20400     1111.198    86.962538      2204118          147  0.007193656    157.03644    2786.9789 
   20500    1090.4926    88.247755      2204118          147  0.007193656     172.9104     2753.848 
   20600    1091.9374     87.84315      2204118          147  0.007193656    169.18765    2753.5448 
   20700    1117.3549    85.540077      2204118          147  0.007193656    143.92551      2788.44 
   20800    1104.4786    85.830305      2204118          147  0.007193656    152.28258    2766.3219 
   20900    1078.9626    85.718019      2204118          147  0.007193656    160.57937    2714.2284 
   21000    1087.6112    86.929556      2204118          147  0.007193656    165.89843    2740.0166 
   21100    1124.4673    87.056869      2204118          147  0.007193656    151.16464    2812.5123 
   21200    1097.8015    94.354999      2204118          147  0.007193656    213.58106    2811.8173 
   21300    1111.3705    90.664387      2204118          147  0.007193656    180.34717    2810.6979 
   21400    1094.3907    91.726216      2204118          147  0.007193656    195.53453    2785.6982 
   21500    1089.9184    91.057089      2204118          147  0.007193656    193.75995    2773.3386 
   21600    1112.3877    87.284197      2204118          147  0.007193656    160.80259    2793.5609 
   21700    1116.1957    81.117489      2204118          147  0.007193656    114.48889    2756.2598 
   21800    1061.4761    86.916709      2204118          147  0.007193656    177.73963    2690.0022 
   21900    1096.6338    88.272827      2204118          147  0.007193656     175.7257    2771.1983 
   22000    1158.4498    81.567669      2204118          147  0.007193656    103.24716    2845.0235 
   22100    1072.7684    86.512752      2204118          147  0.007193656    170.97681    2709.9655 
   22200    1043.8095     88.48655      2204118          147  0.007193656    194.33257    2664.7825 
   22300    1125.6662    88.328085      2204118          147  0.007193656    162.86729    2827.0527 
   22400    1157.7631    89.451913      2204118          147  0.007193656    159.24027    2899.3912 
   22500       1090.4    87.922904      2204118          147  0.007193656    172.41722    2753.1359 
   22600     1051.895    83.648202      2204118          147  0.007193656    154.98552    2644.5719 
   22700     1086.168    84.251201      2204118          147  0.007193656    147.98628    2718.6887 
   22800    1150.1488    85.112457      2204118          147  0.007193656    131.93421     2854.064 
   22900    1115.9693    88.117174      2204118          147  0.007193656    166.47091    2807.7059 
   23000    1072.2441    84.601133      2204118          147  0.007193656     154.7017    2692.4496 
   23100    1065.2589    87.649227      2204118          147  0.007193656    180.58191    2701.7975 
   23200    1137.8138    85.770555      2204118          147  0.007193656    140.18655    2833.1223 
   23300    1131.4743    86.471874      2204118          147  0.007193656    148.19406    2826.1258 
   23400    1071.5865    84.994332      2204118          147  0.007193656    160.19562    2696.3871 
   23500     1075.956    80.495096      2204118          147  0.007193656    125.86111    2672.3942 
   23600    1104.1516    85.173816      2204118          147  0.007193656    151.67934    2764.9448 
   23700    1129.7245      88.5474      2204118          147  0.007193656    167.77151    2841.5618 
   23800    1115.5354    84.701645      2204118          147  0.007193656    143.26516    2783.4732 
   23900    1052.7147    88.104134      2204118          147  0.007193656    190.96584    2682.4922 
   24000    1086.9088    87.060774      2204118          147  0.007193656    168.71734    2741.1732 
   24100     1131.811    90.737345      2204118          147  0.007193656    179.00203    2857.7307 
   24200    1136.5825    86.971854      2204118          147  0.007193656    147.98337    2838.0049 
   24300    1050.9318    91.283806      2204118          147  0.007193656    211.57907    2698.8858 
   24400    1072.6792     90.00286      2204118          147  0.007193656    194.22688    2733.0046 
   24500    1139.2941    90.316884      2204118          147  0.007193656    173.77783    2870.2172 
   24600    1126.7988    90.088215      2204118          147  0.007193656    177.20525    2844.0712 
   24700    1050.2935    92.422645      2204118          147  0.007193656    223.66266    2709.4586 
   24800    1060.2246    94.029965      2204118          147  0.007193656    233.00043    2742.3011 
   24900    1144.1108    90.725095      2204118          147  0.007193656    175.82974    2883.6689 
   25000    1115.6963    93.723588      2204118          147  0.007193656    207.78425    2848.3731 
   25100    1077.8885    87.711266      2204118          147  0.007193656    174.79551    2725.9024 
   25200    1046.9193    94.127895      2204118          147  0.007193656    234.55646    2712.3665 
   25300    1125.6863    93.281825      2204118          147  0.007193656    199.38384    2863.6168 
   25400    1148.6884     92.43674      2204118          147  0.007193656    184.49178    2903.1652 
   25500    1089.8469    89.057038      2204118          147  0.007193656    181.69452     2761.104 
   25600     1059.722    82.972727      2204118          147  0.007193656    147.84735    2655.9583 
   25700    1055.4259    92.080658      2204118          147  0.007193656    218.40921    2716.3525 
   25800    1154.8494     90.90635      2204118          147  0.007193656    172.44954    2905.7045 
   25900    1146.0257     92.33992      2204118          147  0.007193656    187.95104    2900.3225 
   26000    1078.3164    84.490899      2204118          147  0.007193656    154.83742    2706.9569 
   26100    1026.1968    84.692752      2204118          147  0.007193656    175.25675    2604.0216 
   26200    1093.3512    90.613984      2204118          147  0.007193656    194.47065    2782.1739 
   26300    1178.8101    97.560791      2204118          147  0.007193656    217.04585    3007.0102 
   26400    1139.3363    91.556215      2204118          147  0.007193656    187.35599    2883.8951 
   26500    1038.6487    83.622199      2204118          147  0.007193656    164.96042     2623.196 
   26600    1032.4373    84.460856      2204118          147  0.007193656    171.77939     2615.314 
   26700     1121.086    94.557792      2204118          147  0.007193656    213.39982    2866.7449 
   26800     1204.022     92.65963      2204118          147  0.007193656    167.14402    3016.7789 
   26900    1072.8092    96.607913      2204118          147  0.007193656     244.3055    2783.3908 
   27000    1035.8147    88.456398      2204118          147  0.007193656    195.67361    2647.2017 
   27100    1102.5828    88.158589      2204118          147  0.007193656    170.51368    2780.0661 
   27200    1166.3917    87.616314      2204118          147  0.007193656    142.59417    2903.1671 
   27300    1075.6946    95.947604      2204118          147  0.007193656    237.49887    2783.4132 
   27400    1076.5321    90.871735      2204118          147  0.007193656    199.55958    2747.4561 
   27500    1128.6267    85.742733      2204118          147  0.007193656     143.5524    2814.7446 
   27600    1082.0058    96.574615      2204118          147  0.007193656    242.02462    2802.8762 
   27700    1111.4188    92.379336      2204118          147  0.007193656    199.31388    2829.7791 
   27800     1119.421    88.695926      2204118          147  0.007193656    168.41807    2817.8224 
   27900    1076.2324    90.622791      2204118          147  0.007193656    197.46054    2744.6478 
   28000    1085.2973    91.574487      2204118          147  0.007193656    202.03252    2770.6742 
   28100    1122.4472    92.677776      2204118          147  0.007193656    198.98562    2855.5524 
   28200    1129.9694    88.424217      2204118          147  0.007193656    165.46362    2839.8337 
   28300    1077.4141    86.221585      2204118          147  0.007193656    169.99718    2719.9812 
   28400    1082.2876     79.88368      2204118          147  0.007193656     119.1712    2680.6897 
   28500    1073.8766    91.959137      2204118          147  0.007193656    212.26204    2753.8737 
   28600    1147.0958    91.191357      2204118          147  0.007193656    177.99527    2892.8995 
   28700     1123.614    92.437381      2204118          147  0.007193656    197.11231    2856.4406 
   28800    1076.5834    86.365005      2204118          147  0.007193656    169.94351    2717.9614 
   28900    1062.6091    85.371462      2204118          147  0.007193656    167.89416    2682.8382 
   29000    1084.4853    93.999757      2204118          147  0.007193656    222.31408     2789.034 
   29100    1132.1259    100.08203      2204118          147  0.007193656    246.80597    2926.2798 
   29200    1132.6742    99.268617      2204118          147  0.007193656     238.8193    2919.5909 
   29300    1092.2891     90.44864      2204118          147  0.007193656    187.14489    2772.3346 
   29400    1039.4429    92.687571      2204118          147  0.007193656    224.72064    2684.8358 
   29500    1118.2761    90.181649      2204118          147  0.007193656    179.21932    2825.9141 
   29600    1159.6892    91.477632      2204118          147  0.007193656    175.27513    2919.9848 
   29700    1091.8614    90.648178      2204118          147  0.007193656     194.7502    2778.9276 
   29800    1050.3336    85.700679      2204118          147  0.007193656    173.44368    2659.3346 
   29900    1076.9241    88.908347      2204118          147  0.007193656    188.15522    2736.9796 
   30000    1145.5166     91.56285      2204118          147  0.007193656    182.13012    2893.2967 
   30100    1125.7491    92.496631      2204118          147  0.007193656    194.83251    2859.2141 
   30200    1072.9309    89.602918      2204118          147  0.007193656    192.54999    2731.9234 
   30300    1076.8941    84.741203      2204118          147  0.007193656    153.85136    2702.6047 
   30400    1093.1046    93.181072      2204118          147  0.007193656    211.04999    2798.1697 
   30500    1145.7443    94.277157      2204118          147  0.007193656    199.44835    2911.1537 
   30600    1110.7725    93.602286      2204118          147  0.007193656    206.68836    2835.6239 
   30700    1059.5689    91.120292      2204118          147  0.007193656    206.88044     2714.629 
   30800    1057.3696    96.314774      2204118          147  0.007193656     245.9625    2748.5059 
   30900    1141.1253     98.90468      2204118          147  0.007193656    235.36837    2936.1417 
   31000    1163.5211    93.232838      2204118          147  0.007193656    186.82472    2940.6035 
   31100    1060.9926    87.934844      2204118          147  0.007193656    185.96923    2697.0875 
   31200    1037.9109     84.30707      2204118          147  0.007193656    166.80758     2623.297 
   31300    1093.1219     95.74512      2204118          147  0.007193656    231.46473    2818.6254 
   31400    1190.8006    95.577159      2204118          147  0.007193656    193.76475    3012.1079 
   31500    1119.1646    91.724384      2204118          147  0.007193656    192.41855    2841.2162 
   31600    1032.8293    82.317784      2204118          147  0.007193656     154.4691    2598.9315 
   31700    1039.0807    84.206102      2204118          147  0.007193656    166.22786    2625.4858 
   31800    1138.6538    93.641718      2204118          147  0.007193656    199.56231    2894.4863 
   31900    1181.2169    96.721164      2204118          147  0.007193656    205.89123     3001.552 
   32000    1082.2937    92.375056      2204118          147  0.007193656     209.6632    2771.1962 
   32100    1039.3535    83.278141      2204118          147  0.007193656    159.61716    2619.5209 
   32200    1092.1769     81.61116      2204118          147  0.007193656     129.3872    2714.3113 
   32300    1135.4674    89.174175      2204118          147  0.007193656    170.97244    2858.3549 
   32400    1124.4655    89.799398      2204118          147  0.007193656    178.90886    2840.2524 
   32500    1076.0534    85.753277      2204118          147  0.007193656    165.87212    2712.6357 
   32600    1069.9429    82.441299      2204118          147  0.007193656    143.44465    2675.7461 
   32700     1104.197    85.337723      2204118          147  0.007193656    153.42468    2766.7976 
   32800    1129.6609    87.680819      2204118          147  0.007193656    161.99406    2835.6339 
   32900    1103.5931    87.293128      2204118          147  0.007193656    168.67702    2780.6205 
   33000    1072.1949    86.114716      2204118          147  0.007193656    170.43189    2708.0633 
   33100     1084.212    87.227641      2204118          147  0.007193656     171.7965    2737.8694 
   33200    1110.2026    94.400623      2204118          147  0.007193656    214.49043    2842.0772 
   33300    1137.1118    94.211975      2204118          147  0.007193656    204.46377    2895.7381 
   33400    1111.5543    87.870687      2204118          147  0.007193656     167.7144    2798.5002 
   33500    1059.2616    84.783804      2204118          147  0.007193656    165.87381    2672.8951 
   33600    1077.2457    83.169767      2204118          147  0.007193656    147.19457    2696.7799 
   33700    1121.6526    89.046576      2204118          147  0.007193656    173.94225    2828.6283 
   33800    1132.8298    94.188143      2204118          147  0.007193656    209.09919     2890.239 
   33900    1099.9834    88.993822      2204118          147  0.007193656    181.55159    2784.9517 
   34000    1054.7406    86.625796      2204118          147  0.007193656    180.07552    2676.3967 
   34100    1092.1269    85.434769      2204118          147  0.007193656     158.2155    2743.0213 
   34200    1143.0337    87.795015      2204118          147  0.007193656      158.239    2863.5291 
   34300    1115.4382    90.102158      2204118          147  0.007193656    185.97093     2825.949 
   34400    1061.1223    90.055179      2204118          147  0.007193656    206.01599    2717.4412 
   34500    1083.3601    85.431496      2204118          147  0.007193656    162.80876    2726.8656 
   34600    1121.0936    85.958219      2204118          147  0.007193656    153.00904    2806.3722 
   34700    1121.7669    85.768857      2204118          147  0.007193656    150.81135    2805.7679 
   34800    1084.2699    84.896644      2204118          147  0.007193656    157.49077    2723.7008 
   34900    1077.7386    84.680602      2204118          147  0.007193656     157.7385    2708.4906 
   35000    1095.2293    90.130954      2204118          147  0.007193656    190.85989    2783.0082 
   35100    1130.1279     92.17119      2204118          147  0.007193656    193.18374    2867.9288 
   35200    1116.6992     90.64689      2204118          147  0.007193656    188.62046     2831.583 
   35300    1072.4134    85.646282      2204118          147  0.007193656    167.72528    2705.8738 
   35400    1062.8948    86.007412      2204118          147  0.007193656    173.89604    2689.5163 
   35500    1121.0952    88.054869      2204118          147  0.007193656    167.30505    2820.6718 
   35600    1143.4447    89.298009      2204118          147  0.007193656    166.34011    2872.6028 
   35700    1086.4902    91.450076      2204118          147  0.007193656    201.51366    2772.9787 
   35800    1049.6018    95.635154      2204118          147  0.007193656    245.50934    2729.6681 
   35900    1120.1957    93.165236      2204118          147  0.007193656    199.59519    2850.8332 
   36000    1133.8555    98.779372      2204118          147  0.007193656    238.56648    2922.1339 
   36100     1117.721    88.970254      2204118          147  0.007193656    170.95776    2816.3386 
   36200    1050.7961    85.165116      2204118          147  0.007193656    167.79284    2654.7784 
   36300    1061.1667    86.686341      2204118          147  0.007193656    175.20583    2686.7362 
   36400    1131.2627    94.681819      2204118          147  0.007193656    209.64247    2887.0733 
   36500    1171.4555     93.03944      2204118          147  0.007193656    182.89537    2955.4531 
   36600    1069.4428    91.319012      2204118          147  0.007193656    207.90652    2739.0244 
   36700    1037.8567    84.791572      2204118          147  0.007193656    171.05507    2627.4161 
   36800    1086.5827    91.068402      2204118          147  0.007193656    200.44596    2772.1298 
   36900    1163.0417     97.47085      2204118          147  0.007193656    219.72023    2972.3646 
   37000    1119.9517    97.700062      2204118          147  0.007193656    235.53215    2886.1925 
   37100    1044.1141    92.437896      2204118          147  0.007193656    220.32705    2691.4978 
   37200    1056.8752    93.067137      2204118          147  0.007193656    219.54142    2720.9148 
   37300    1152.1729    94.539576      2204118          147  0.007193656    195.44051    2922.3608 
   37400    1151.3444    95.615135      2204118          147  0.007193656    204.65186    2929.6113 
   37500    1069.3462    91.169536      2204118          147  0.007193656    203.59959    2734.4887 
   37600    1042.9338    86.660966      2204118          147  0.007193656    180.17292    2648.5501 
   37700    1093.4938    92.039802      2204118          147  0.007193656    202.05332    2790.0942 
   37800    1159.0328    97.648987      2204118          147  0.007193656    220.24153    2963.3978 
   37900    1124.4907    93.794604      2204118          147  0.007193656     202.5348    2863.9379 
   38000    1044.7591    89.400558      2204118          147  0.007193656    199.74287    2672.4403 
   38100    1071.6956    84.094477      2204118          147  0.007193656     152.1777    2688.6274 
   38200     1119.456    89.492854      2204118          147  0.007193656    175.05314    2824.5405 
   38300    1127.1739    96.422101      2204118          147  0.007193656    221.92685    2889.6807 
   38400    1111.1104    94.178904      2204118          147  0.007193656    210.02191    2839.7572 
   38500    1093.2317     87.08209      2204118          147  0.007193656    165.15322    2752.5738 
   38600    1077.7476    85.719621      2204118          147  0.007193656    162.60841    2713.3817 
   38700    1097.9131    86.586952      2204118          147  0.007193656    161.57428    2760.0745 
   38800    1121.9011    89.617559      2204118          147  0.007193656    175.25677     2830.531 
   38900    1117.9631    90.224111      2204118          147  0.007193656    180.28249    2826.2365 
   39000    1084.1607    92.233568      2204118          147  0.007193656    207.19704    2773.1488 
   39100    1087.8673    92.109525      2204118          147  0.007193656    204.80838    2779.5325 
   39200    1099.3186    95.730548      2204118          147  0.007193656    227.67352    2829.5003 
   39300    1130.5014    91.868525      2204118          147  0.007193656    187.26465    2862.8938 
   39400    1095.0466    91.117118      2204118          147  0.007193656    196.08421    2787.8002 
   39500    1075.2123     86.95924      2204118          147  0.007193656    171.40255    2716.1755 
   39600    1067.9218    92.580718      2204118          147  0.007193656    215.64946    2743.1676 
   39700     1136.548    89.793591      2204118          147  0.007193656    168.06289    2858.0028 
   39800    1112.7172    95.263351      2204118          147  0.007193656     216.6724    2850.2105 
   39900    1081.3221    92.985013      2204118          147  0.007193656    208.38888    2767.6221 
   40000     1068.456    96.683067      2204118          147  0.007193656    240.23701    2769.0193 
   40100    1131.6167    95.191211      2204118          147  0.007193656    206.46193    2884.7306 
   40200    1128.3745    97.150057      2204118          147  0.007193656    224.66602    2895.2611 
   40300    1094.9978    88.280806      2204118          147  0.007193656    171.46031    2763.0608 
   40400     1044.603    87.879415      2204118          147  0.007193656    187.13334    2659.4613 
   40500    1063.0515    98.042948      2204118          147  0.007193656    257.85248    2773.8435 
   40600    1178.7445    96.829771      2204118          147  0.007193656    203.76696     2993.576 
   40700     1146.755    96.823043      2204118          147  0.007193656    214.76772    2928.8652 
   40800    1056.0932    92.042287      2204118          147  0.007193656    214.45751    2713.9801 
   40900    1062.8792    84.824637      2204118          147  0.007193656    160.26234    2675.8457 
   41000     1115.188    86.590155      2204118          147  0.007193656    153.66446    2793.0505 
   41100    1120.9871    95.050355      2204118          147  0.007193656    211.70838    2864.8194 
   41200    1098.2135     100.9799      2204118          147  0.007193656    262.12907    2861.3405 
   41300    1113.3663    96.822371      2204118          147  0.007193656    224.27889    2859.3532 
   41400    1099.4443    94.479696      2204118          147  0.007193656    211.92584    2814.0502 
   41500     1074.389    96.526437      2204118          147  0.007193656    236.39142    2779.2157 
   41600    1104.0432    96.181835      2204118          147  0.007193656    222.94039    2835.9491 
   41700    1131.2306     96.48597      2204118          147  0.007193656     217.1058    2894.4608 
   41800    1103.8866     96.51323      2204118          147  0.007193656    227.86435    2840.5026 
   41900    1081.8612    93.438855      2204118          147  0.007193656    213.44105    2773.9503 
   42000    1076.9483     96.68056      2204118          147  0.007193656    241.74002    2790.6217 
   42100    1126.6333    92.944706      2204118          147  0.007193656    195.97378     2862.448 
   42200    1099.4026    98.580321      2204118          147  0.007193656    249.74847    2851.7741 
   42300    1105.4304     89.74057      2204118          147  0.007193656    181.34733    2797.6394 
   42400     1070.598    90.386505      2204118          147  0.007193656    199.02319    2732.8752 
   42500    1096.1607     90.36677      2204118          147  0.007193656    189.12119    2783.4741 
   42600    1121.3952    93.685146      2204118          147  0.007193656    205.15647    2859.2334 
   42700    1115.0776    90.918902      2204118          147  0.007193656    186.11946    2825.2441 
   42800    1086.7221    86.076834      2204118          147  0.007193656     160.2756    2732.2894 
   42900    1069.2891     87.57603      2204118          147  0.007193656    177.45202    2708.2062 
   43000    1105.5677    91.729517      2204118          147  0.007193656    195.08666    2811.7036 
   43100    1139.0991    93.733386      2204118          147  0.007193656    197.32613     2893.304 
   43200    1105.3444    94.314074      2204118          147  0.007193656    214.52472    2830.6132 
   43300    1081.3567     88.82045      2204118          147  0.007193656    183.34321    2742.6585 
   43400    1083.6064     86.59654      2204118          147  0.007193656    167.58276    2732.2224 
   43500    1104.9921      88.5602      2204118          147  0.007193656    175.78725     2791.042 
   43600    1123.4888    88.691176      2204118          147  0.007193656    170.35579    2829.3876 
   43700      1104.16    87.710785      2204118          147  0.007193656    170.23145    2783.5166 
   43800    1075.0169    85.925201      2204118          147  0.007193656    166.88726    2711.1977 
   43900    1101.3416    81.688828      2204118          147  0.007193656    124.79071    2731.4054 
   44000    1098.2495     88.72332      2204118          147  0.007193656    176.80625    2776.1026 
   44100     1089.622    98.942671      2204118          147  0.007193656     254.1034    2832.9807 
   44200    1144.6713    93.728171      2204118          147  0.007193656    195.44537    2904.6113 
   44300    1110.6141    87.865101      2204118          147  0.007193656    165.19112    2793.7517 
   44400    1041.2759    88.207865      2204118          147  0.007193656    193.34383    2657.7973 
   44500    1091.2326    86.884147      2204118          147  0.007193656    165.23739    2747.9265 
   44600    1148.1484     90.97835      2204118          147  0.007193656    175.79273    2893.1882 
   44700    1126.4446     88.60454      2204118          147  0.007193656     166.0472    2832.0747 
   44800    1057.5212    84.742176      2204118          147  0.007193656    163.39572    2666.2979 
   44900    1060.1901    82.348989      2204118          147  0.007193656    143.13688    2652.3558 
   45000     1102.482      92.7907      2204118          147  0.007193656    204.52871    2813.8424 
   45100    1166.2613    97.132962      2204118          147  0.007193656    214.38303    2974.6473 
   45200    1119.1795    94.648798      2204118          147  0.007193656    214.76279    2863.5956 
   45300    1041.2777    89.675809      2204118          147  0.007193656    206.42367    2670.8813 
   45400    1061.1718    87.598913      2204118          147  0.007193656    183.17391    2694.7162 
   45500    1139.6521     91.54679      2204118          147  0.007193656    185.31162    2882.5984 
   45600     1162.348    88.172119      2204118          147  0.007193656    153.88433    2904.8868 
   45700    1069.3946     81.69963      2204118          147  0.007193656    140.33511    2671.3388 
   45800    1029.6502    79.604588      2204118          147  0.007193656    138.17968    2575.1178 
   45900    1095.1379    88.729007      2204118          147  0.007193656     181.5691    2773.5011 
   46000    1180.6399    95.291793      2204118          147  0.007193656    199.04034    2993.3355 
   46100     1137.558    89.100923      2204118          147  0.007193656    167.72324    2860.0537 
   46200     1021.866    84.551364      2204118          147  0.007193656    176.10814    2594.6229 
   46300    1045.9902    82.497482      2204118          147  0.007193656    152.20194    2627.8129 
   46400    1143.9239    90.827211      2204118          147  0.007193656    179.44306    2886.8401 
   46500    1165.3644    94.537374      2204118          147  0.007193656     199.3353    2957.4768 
   46600    1087.0903    86.932957      2204118          147  0.007193656    171.24018    2744.1254 
   46700    1036.9082    82.219252      2204118          147  0.007193656    154.60605    2608.7222 
   46800    1079.2475     87.60938      2204118          147  0.007193656    178.61467    2732.9379 
   46900    1166.0006    92.052994      2204118          147  0.007193656    177.96166    2937.6091 
   47000    1126.6575    97.641071      2204118          147  0.007193656    233.56495    2900.0964 
   47100    1074.5162    90.831466      2204118          147  0.007193656    202.51601    2745.6413 
   47200    1075.2382    85.043461      2204118          147  0.007193656    161.16513    2705.9993 
   47300    1100.0593    88.208658      2204118          147  0.007193656    176.54748    2780.1272 
   47400    1133.0948    89.622049      2204118          147  0.007193656    174.59938    2856.3663 
   47500    1114.8254    87.478062      2204118          147  0.007193656    164.15485    2802.6826 
   47600    1058.8383    88.471952      2204118          147  0.007193656    189.31767    2695.3371 
   47700    1071.0537    93.611003      2204118          147  0.007193656    222.23028    2757.1608 
   47800    1155.5015     91.56564      2204118          147  0.007193656     177.0873    2911.8856 
   47900    1129.6487    89.856132      2204118          147  0.007193656    175.31575    2848.9267 
   48000    1054.5287     87.07412      2204118          147  0.007193656    182.36432    2678.1841 
   48100    1047.5074    90.598839      2204118          147  0.007193656    211.67008    2690.8721 
   48200    1142.0233      93.0435      2204118          147  0.007193656    196.20703    2899.1058 
   48300    1150.2624    96.923635      2204118          147  0.007193656    224.52207    2946.9209 
   48400    1076.6237    90.362305      2204118          147  0.007193656    201.77439    2749.8878 
   48500    1026.5976    90.316719      2204118          147  0.007193656    220.84282    2650.5563 
   48600    1132.2528    82.901997      2204118          147  0.007193656    127.12175    2806.8959 
   48700    1132.4927    92.077068      2204118          147  0.007193656    195.37872    2875.7207 
   48800    1092.6986    92.921865      2204118          147  0.007193656    213.56112      2799.72 
   48900    1084.8818    89.564968      2204118          147  0.007193656    191.24788    2758.9062 
   49000    1101.7105    87.808694      2204118          147  0.007193656    171.90474    2779.3927 
   49100    1096.5048    90.658201      2204118          147  0.007193656    194.34164    2789.5089 
   49200    1101.0098    88.957664      2204118          147  0.007193656    178.78638    2784.6158 
   49300    1090.8803    90.331984      2204118          147  0.007193656    192.13769     2773.993 
   49400    1101.6686     89.87334      2204118          147  0.007193656     183.7224     2791.111 
   49500    1101.6134    92.011602      2204118          147  0.007193656    199.04965    2806.3076 
   49600    1112.6303    88.793379      2204118          147  0.007193656    170.22001    2803.5524 
   49700    1080.0975    92.158423      2204118          147  0.007193656    207.14814    2763.4831 
   49800    1091.4218    94.389617      2204118          147  0.007193656    220.15289    2803.2898 
   49900    1141.9923    92.045282      2204118          147  0.007193656    185.97844    2888.8038 
   50000     1100.881    93.527292      2204118          147  0.007193656    214.33195    2819.8567 
   50100    1081.8381    84.298846      2204118          147  0.007193656    152.48599    2712.9407 
   50200    1068.4392    85.489415      2204118          147  0.007193656    167.57388    2696.3164 
   50300    1105.6706    89.756009      2204118          147  0.007193656    187.04815    2803.9087 
   50400    1159.7402    83.673014      2204118          147  0.007193656    121.33451    2866.1649 
   50500    1078.2494    84.402005      2204118          147  0.007193656    155.18012    2707.1412 
   50600     1035.635    87.165083      2204118          147  0.007193656    190.03933    2641.1421 
   50700    1112.4522    91.325333      2204118          147  0.007193656    194.14424    2827.0551 
   50800     1174.914    91.716518      2204118          147  0.007193656    175.82974    2956.5729 
   50900     1096.938    88.853154      2204118          147  0.007193656     184.2827    2780.4752 
   51000     1049.265    77.923876      2204118          147  0.007193656    121.79805    2605.1598 
   51100    1067.8693    76.874594      2204118          147  0.007193656    107.00678    2634.4004 
   51200    1119.5943    86.361097      2204118          147  0.007193656    157.77841    2807.5929 
   51300    1142.8979    91.564388      2204118          147  0.007193656      185.624    2890.5928 
   51400    1099.1174    91.934809      2204118          147  0.007193656    202.28065    2803.6312 
   51500    1070.8991    88.324232      2204118          147  0.007193656    185.72351     2720.288 
   51600    1079.7808    89.644503      2204118          147  0.007193656    192.06408    2747.6494 
   51700    1119.3079    93.267817      2204118          147  0.007193656     204.3437    2853.4805 
   51800    1132.0789    91.330933      2204118          147  0.007193656    184.35584    2863.7186 
   51900    1080.0818     89.69641      2204118          147  0.007193656    191.86309    2748.1609 
   52000     1065.391    88.018739      2204118          147  0.007193656    186.08518    2707.6133 
   52100    1098.5243    91.212951      2204118          147  0.007193656      198.127    2798.0738 
   52200    1137.8892    91.712956      2204118          147  0.007193656    186.97408    2880.0883 
   52300    1105.9868    90.826868      2204118          147  0.007193656    190.35967    2807.9684 
   52400    1057.8152    92.727723      2204118          147  0.007193656    222.30853    2725.9066 
   52500    1098.1538    90.816943      2204118          147  0.007193656    194.71631    2793.7863 
   52600    1136.3405     88.82369      2204118          147  0.007193656    166.97995    2856.4287 
   52700    1089.0787    90.559196      2204118          147  0.007193656    197.13055     2774.722 
   52800    1076.7093    86.405649      2204118          147  0.007193656     169.0594    2717.3754 
   52900    1094.0952     87.79724      2204118          147  0.007193656     172.5664    2762.0308 
   53000    1109.5826    93.604203      2204118          147  0.007193656    209.93788    2836.0572 
   53100     1116.264     94.47686      2204118          147  0.007193656    212.21037    2854.1429 
   53200    1103.9363    91.947423      2204118          147  0.007193656    197.03522     2809.791 
   53300    1084.6386    90.102901      2204118          147  0.007193656    189.45419     2756.537 
   53400    1075.7801     94.27584      2204118          147  0.007193656    222.93411    2769.0509 
   53500    1109.7013    97.211284      2204118          147  0.007193656    232.18285    2858.5829 
   53600    1122.9081    97.027319      2204118          147  0.007193656    225.88637    2883.5439 
   53700    1105.3982    91.040273      2204118          147  0.007193656    189.25863    2805.4744 
   53800     1077.031    87.466175      2204118          147  0.007193656    175.40527    2724.4827 
   53900    1077.6647    89.104989      2204118          147  0.007193656    187.64055    2738.2176 
   54000     1128.051    88.564797      2204118          147  0.007193656     164.7756    2834.6051 
   54100    1118.3171    92.919429      2204118          147  0.007193656    202.91853    2849.7103 
   54200    1099.3254     86.82788      2204118          147  0.007193656    166.10954    2767.9524 
   54300    1071.3376    83.940009      2204118          147  0.007193656    156.22285    2691.8253 
   54400    1100.8986    81.240237      2204118          147  0.007193656    125.20236    2730.7685 
   54500    1110.3914    86.879673      2204118          147  0.007193656    162.48321    2790.5168 
   54600     1107.566    90.292535      2204118          147  0.007193656    186.73313    2808.0797 
   54700    1084.5697    95.383592      2204118          147  0.007193656    232.40752    2799.3271 
   54800    1104.9153    93.213468      2204118          147  0.007193656    209.03186    2824.1047 
   54900    1111.6572    90.450614      2204118          147  0.007193656    185.61791    2816.6473 
   55000     1103.962     87.40641      2204118          147  0.007193656    166.17458    2778.9912 
   55100     1082.549    89.932281      2204118          147  0.007193656    194.65426    2756.7913 
   55200    1096.5572    89.166196      2204118          147  0.007193656    184.01476    2779.3059 
   55300    1116.3942    87.363497      2204118          147  0.007193656    163.39084    2805.6316 
   55400     1098.271    87.053298      2204118          147  0.007193656    169.04922    2768.3966 
   55500    1088.4496    83.519873      2204118          147  0.007193656    146.39787    2722.5003 
   55600    1077.1447    89.036516      2204118          147  0.007193656    191.72711    2741.0735 
   55700    1125.5477    89.658559      2204118          147  0.007193656    178.13317    2842.0381 
   55800    1126.7407    88.627252      2204118          147  0.007193656     169.2366    2835.9651 
   55900    1079.3471     85.24943      2204118          147  0.007193656     160.1108    2714.6698 
   56000    1057.0132    87.029062      2204118          147  0.007193656    180.17318    2681.8731 
   56100     1111.053    90.276641      2204118          147  0.007193656    184.77926    2814.3785 
   56200    1148.2012    91.748186      2204118          147  0.007193656    182.97695    2900.4973 
   56300     1109.032    85.553215      2204118          147  0.007193656    150.34494    2775.1611 
   56400     1049.428      81.9581      2204118          147  0.007193656     143.9555     2627.703 
   56500    1059.7547    87.167401      2204118          147  0.007193656    176.73862     2684.927 
   56600    1138.1225    95.757478      2204118          147  0.007193656    210.19318    2903.8595 
   56700    1153.9937    101.50713      2204118          147  0.007193656    247.45749    2978.6872 
   56800    1088.4265    96.502876      2204118          147  0.007193656    234.81944    2810.8672 
   56900    1057.9618    86.280307      2204118          147  0.007193656    169.85887     2673.804 
   57000     1066.048    90.694113      2204118          147  0.007193656    201.08741    2724.1705 
   57100    1143.4537    93.134401      2204118          147  0.007193656    191.13906    2897.4231 
   57200    1138.9223    93.888794      2204118          147  0.007193656    198.74767    2894.3071 
   57300    1075.7773    88.911406      2204118          147  0.007193656    184.73128    2730.8414 
   57400    1048.0718    88.579216      2204118          147  0.007193656    192.87323     2673.411 
   57500    1108.8922    91.783617      2204118          147  0.007193656    196.14011    2820.6254 
   57600    1156.9919    93.588255      2204118          147  0.007193656    192.16103    2930.4868 
   57700    1099.8178    93.241063      2204118          147  0.007193656    210.66855    2813.6768 
   57800    1066.1609     85.83294      2204118          147  0.007193656    168.96561     2692.316 
   57900    1078.0537    84.610063      2204118          147  0.007193656    157.44492    2708.9428 
   58000    1125.2735    86.010272      2204118          147  0.007193656     149.8502    2813.1061 
   58100    1107.7076     93.65471      2204118          147  0.007193656     211.0699    2832.7515 
   58200    1094.0035    95.491594      2204118          147  0.007193656    229.84379    2819.0911 
   58300    1114.8537    89.641559      2204118          147  0.007193656    180.64239    2819.2372 
   58400    1111.7294    83.539101      2204118          147  0.007193656    138.74557    2769.9457 
   58500    1066.6057    86.245799      2204118          147  0.007193656    176.56631    2700.9694 
   58600    1086.1792    85.926732      2204118          147  0.007193656    164.84073    2735.5696 
   58700    1122.8571    89.401551      2204118          147  0.007193656    176.72263    2834.2594 
   58800    1130.5383    89.332684      2204118          147  0.007193656     172.5811    2848.2975 
   58900    1078.8345     92.11077      2204118          147  0.007193656    212.65878    2766.0045 
   59000    1109.2999    83.987491      2204118          147  0.007193656    141.91016    2767.3604 
   59100    1107.1391    84.908894      2204118          147  0.007193656    150.40737    2770.7435 
   59200    1095.1603    85.225628      2204118          147  0.007193656    156.39905    2748.3842 
   59300    1101.7438    82.116964      2204118          147  0.007193656    129.25612    2736.8228 
   59400    1077.1762    88.507628      2204118          147  0.007193656    184.65982    2734.0808 
   59500    1104.5299    89.817096      2204118          147  0.007193656    182.90383    2797.0645 
   59600    1131.2834    88.956292      2204118          147  0.007193656    166.56682    2844.0468 
   59700    1101.9537    88.156886      2204118          147  0.007193656     171.9603    2780.0238 
   59800    1073.3654    85.192722      2204118          147  0.007193656    159.71431    2700.1159 
   59900    1077.6829    88.135876      2204118          147  0.007193656    179.81785    2730.4381 
   60000    1130.1327    90.121099      2204118          147  0.007193656    175.88303    2850.6395 
   60100    1130.3068    90.145508      2204118          147  0.007193656    176.46416    2851.6327 
   60200    1076.5319    88.613714      2204118          147  0.007193656     185.0552    2732.9512 
   60300    1076.5931    85.977882      2204118          147  0.007193656    165.46961    2713.5105 
   60400    1110.9349     88.27397      2204118          147  0.007193656    171.03266    2800.3524 
   60500     1119.777    91.490586      2204118          147  0.007193656    192.51057    2842.7575 
   60600    1098.4056    88.869959      2204118          147  0.007193656    180.37153    2780.0374 
   60700    1074.8395    87.528644      2204118          147  0.007193656    178.96928    2722.8598 
   60800    1100.7281    86.699012      2204118          147  0.007193656    163.51719    2768.6799 
   60900    1125.6577      87.7319      2204118          147  0.007193656    162.07795    2826.2431 
   61000    1100.3206    89.581994      2204118          147  0.007193656    184.67179      2788.87 
   61100    1069.5907    89.774702      2204118          147  0.007193656    195.41624    2726.8841 
   61200    1084.9335    92.032832      2204118          147  0.007193656    206.45784    2774.2386 
   61300     1138.977    90.965418      2204118          147  0.007193656    179.98586    2875.6747 
   61400    1121.8355    88.822076      2204118          147  0.007193656    171.25021    2826.3691 
   61500    1060.4335    88.648877      2204118          147  0.007193656    192.04986    2701.8447 
   61600    1077.9096    87.883385      2204118          147  0.007193656    179.30075    2730.4574 
   61700    1120.0355    93.229586      2204118          147  0.007193656    204.24056    2855.0992 
   61800    1137.8662    93.729283      2204118          147  0.007193656    202.74558    2895.8055 
   61900    1102.0256    87.399719      2204118          147  0.007193656    170.93233    2779.1659 
   62000    1073.4893    80.482663      2204118          147  0.007193656    130.99897     2671.694 
   62100    1086.5571    80.153856      2204118          147  0.007193656    122.58903    2694.2125 
   62200    1124.5328    91.925341      2204118          147  0.007193656    193.91079    2855.4136 
   62300    1141.7945    99.405989      2204118          147  0.007193656    241.17275      2943.53 
   62400    1132.5309    89.934813      2204118          147  0.007193656    173.78544    2854.2179 
   62500     1099.457    88.882544      2204118          147  0.007193656    179.56643    2781.7207 
   62600    1091.6216    87.194368      2204118          147  0.007193656    169.49268    2753.1024 
   62700    1094.6126    89.507208      2204118          147  0.007193656    184.58747    2775.2764 
   62800    1119.9328     96.07438      2204118          147  0.007193656    223.71065    2874.3263 
   62900    1154.5765    95.281265      2204118          147  0.007193656     204.6078    2937.2168 
   63000    1073.2686    92.322984      2204118          147  0.007193656    213.51158    2753.6842 
   63100    1075.4659    85.216278      2204118          147  0.007193656    159.51832    2704.8914 
   63200    1081.6812    92.245361      2204118          147  0.007193656    209.60808    2769.6912 
   63300    1113.6697    94.790367      2204118          147  0.007193656    215.81471    2851.6071 
   63400    1107.1004    95.755319      2204118          147  0.007193656     225.5177    2845.7623 
   63500    1114.3029    89.374853      2204118          147  0.007193656    175.31948    2812.6106 
   63600    1102.1197    87.045855      2204118          147  0.007193656    163.55247    2772.0088 
   63700    1080.2328    90.358763      2204118          147  0.007193656    197.74933    2754.4046 
   63800    1125.5552    85.844676      2204118          147  0.007193656    148.65787    2812.5805 
   63900    1168.2716    90.615796      2204118          147  0.007193656    169.26491     2934.287 
   64000    1123.8227     92.89862      2204118          147  0.007193656    203.11268    2862.9349 
   64100    1081.6254    82.380143      2204118          147  0.007193656    139.75594    2699.7071 
   64200    1073.0253    84.818676      2204118          147  0.007193656    161.42306    2701.0199 
   64300    1116.6083     88.90061      2204118          147  0.007193656    175.19398    2817.9414 
   64400    1135.4498    89.374214      2204118          147  0.007193656    170.62027    2857.9611 
   64500    1050.8309    87.262339      2204118          147  0.007193656    184.24766    2671.3155 
   64600    1018.1893    89.538078      2204118          147  0.007193656    212.00729    2621.8202 
   64700    1088.4163    91.140061      2204118          147  0.007193656    198.39755    2774.4211 
   64800    1134.1859     90.57581      2204118          147  0.007193656    178.81045      2863.16 
   64900     1103.374    89.711418      2204118          147  0.007193656    183.73083    2795.1559 
   65000    1066.6651    88.156975      2204118          147  0.007193656    184.62457    2709.1682 
   65100    1105.1483    90.888876      2204118          147  0.007193656    190.94043    2806.5647 
   65200    1165.0247    96.004836      2204118          147  0.007193656    206.28402    2963.6216 
   65300    1138.8931    89.728353      2204118          147  0.007193656    167.03783     2862.528 
   65400    1100.9125    88.480682      2204118          147  0.007193656    170.63233    2776.2315 
   65500    1077.8329    89.768081      2204118          147  0.007193656    187.11256    2738.0877 
   65600     1080.954     98.66365      2204118          147  0.007193656    251.75055    2810.1127 
   65700     1159.494    98.492554      2204118          147  0.007193656    225.10552    2969.3531 
   65800    1147.5936    86.511724      2204118          147  0.007193656    142.33462     2858.417 
   65900    1091.6593    88.085388      2204118          147  0.007193656     177.0958    2760.7948 
   66000    1092.3567    83.776425      2204118          147  0.007193656    144.64519    2729.9949 
   66100    1086.5525    87.118641      2204118          147  0.007193656    171.97321    2743.5857 
   66200    1141.3582     89.26415      2204118          147  0.007193656    166.91326    2868.2377 
   66300    1140.5887    93.568847      2204118          147  0.007193656     199.5804    2899.0838 
   66400    1068.2459    86.371956      2204118          147  0.007193656    172.22304     2700.508 
   66500    1068.3147    84.272304      2204118          147  0.007193656    158.01912    2686.4671 
   66600    1096.8467    89.822136      2204118          147  0.007193656    189.95164     2785.928 
   66700    1122.1343    91.452453      2204118          147  0.007193656    192.73336    2848.5595 
   66800    1116.8332     88.00682      2204118          147  0.007193656    168.28357    2811.5633 
   66900    1053.3023    87.837028      2204118          147  0.007193656    189.21384     2682.131 
   67000    984.45268    83.868417      2204118          147  0.007193656     184.5001    2514.4665 
   67100      1072.56    85.309106      2204118          147  0.007193656    163.90983    2702.4053 
   67200    1100.8084     90.72542      2204118          147  0.007193656    194.16139    2799.5143 
   67300    1125.3714     90.33175      2204118          147  0.007193656    180.70088    2844.1884 
   67400    1094.1955     93.12203      2204118          147  0.007193656    212.10797    2801.8095 
   67500    1090.5971    84.796925      2204118          147  0.007193656    150.91818    2732.1033 
   67600    1058.3863    84.493136      2204118          147  0.007193656    159.35128    2664.3011 
   67700    1068.3723    96.006665      2204118          147  0.007193656     240.4893    2769.0735 
   67800    1156.1671    92.427686      2204118          147  0.007193656    181.01763    2917.3913 
   67900     1102.429    93.891609      2204118          147  0.007193656     212.4024    2821.5908 
   68000    1052.7947    96.052491      2204118          147  0.007193656    246.30784    2738.0237 
   68100    1118.0719    92.246659      2204118          147  0.007193656    196.46642    2842.6779 
   68200    1149.5447    88.113844      2204118          147  0.007193656     156.3462    2877.0463 
   68300    1099.6727    90.112184      2204118          147  0.007193656     189.9461    2792.6109 
   68400    1099.7003    87.309554      2204118          147  0.007193656    167.68653    2770.4166 
   68500    1084.0514    92.130698      2204118          147  0.007193656    208.81702    2774.5099 
   68600    1140.9265    90.890182      2204118          147  0.007193656    179.02604     2879.329 
   68700    1147.5712     91.71207      2204118          147  0.007193656    184.01424    2900.0436 
   68800     1061.546     87.04057      2204118          147  0.007193656    179.78643    2692.2144 
   68900    1065.6513    87.491535      2204118          147  0.007193656     181.1371    2703.2812 
   69000    1093.9669    94.601311      2204118          147  0.007193656    226.68205    2815.8426 
   69100    1132.8428    88.360678      2204118          147  0.007193656     165.9316    2847.1023 
   69200     1097.016    86.774905      2204118          147  0.007193656    167.09553    2763.4727 
   69300     1082.901     87.35634      2204118          147  0.007193656    175.86525    2738.8356 
   69400    1087.0341    89.885305      2204118          147  0.007193656    192.23002    2764.9822 
   69500    1101.8036    91.754514      2204118          147  0.007193656    199.36574    2807.0739 
   69600    1118.6675    92.256997      2204118          147  0.007193656    196.05757    2843.6786 
   69700    1095.8719    91.495121      2204118          147  0.007193656    196.90877    2790.5781 
   69800    1049.4577    88.484768      2204118          147  0.007193656    190.43136    2674.2492 
   69900    1089.1137    89.851987      2204118          147  0.007193656    187.95114    2765.6253 
   70000    1144.2678    92.316265      2204118          147  0.007193656    187.85892    2896.0698 
   70100     1114.602    91.193932      2204118          147  0.007193656    190.64689    2828.6458 
   70200    1095.1526    87.930512      2204118          147  0.007193656     173.0541     2765.021 
   70300    1088.1606    89.474491      2204118          147  0.007193656    187.34233    2762.7607 
   70400    1103.3985    92.066039      2204118          147  0.007193656    201.18786    2812.6707 
   70500    1181.2061    95.251671      2204118          147  0.007193656    197.88362    2993.5187 
   70600    1181.9298    89.580455      2204118          147  0.007193656    155.85943    2953.2074 
   70700     1089.363     89.10387      2204118          147  0.007193656    185.67826    2763.9426 
   70800    1084.3566    88.194442      2204118          147  0.007193656    179.48736    2745.9027 
   70900    1117.5241    86.712464      2204118          147  0.007193656    154.96094    2799.8757 
   71000    1103.0826    92.798187      2204118          147  0.007193656    203.89863    2814.6339 
   71100    1087.0803    94.909175      2204118          147  0.007193656    222.17888    2795.0406 
   71200    1088.0342    97.846243      2204118          147  0.007193656    242.24001    2817.3594 
   71300    1130.3061    100.91316      2204118          147  0.007193656    251.13353    2926.3004 
   71400    1134.7762    95.390663      2204118          147  0.007193656     209.3111    2895.0576 
   71500    1067.8225    90.209391      2204118          147  0.007193656    196.43383    2723.7167 
   71600    1085.5617    86.310103      2204118          147  0.007193656     161.8719    2731.1394 
   71700    1098.5284    91.180946      2204118          147  0.007193656    193.35814    2793.3148 
   71800    1146.6707    88.447044      2204118          147  0.007193656    155.39408    2869.2921 
   71900    1093.1498    87.572978      2204118          147  0.007193656    169.16881    2756.3956 
   72000    1037.1554     87.05021      2204118          147  0.007193656    185.90721    2640.6084 
   72100    1108.6243    85.821684      2204118          147  0.007193656    150.84873       2774.7 
   72200    1114.9835    93.401111      2204118          147  0.007193656    205.95233    2844.8542 
   72300    1122.5643    87.545406      2204118          147  0.007193656    158.36809    2815.2121 
   72400    1045.9941    86.764959      2204118          147  0.007193656    181.93597    2657.5564 
   72500     1036.924    85.391568      2204118          147  0.007193656     175.1852    2629.3388 
   72600    1138.0854    91.412627      2204118          147  0.007193656    184.23515    2877.8137 
   72700    1122.7708    89.873583      2204118          147  0.007193656    179.05507    2836.3878 
   72800    1072.8421    88.553251      2204118          147  0.007193656    187.89698    2727.0601 
   72900      1091.95    83.450196      2204118          147  0.007193656    143.83848    2728.2256 
   73000    1129.0802    83.467303      2204118          147  0.007193656    130.33441    2802.5998 
   73100     1122.619    92.381889      2204118          147  0.007193656    198.64391    2855.6172 
   73200    1103.6599    91.052737      2204118          147  0.007193656    193.48529     2805.587 
   73300    1053.5246    88.908019      2204118          147  0.007193656    195.47895    2688.9222 
   73400    1093.8767     84.71504      2204118          147  0.007193656    149.76014    2738.7073 
   73500    1140.6111    91.637919      2204118          147  0.007193656    184.61962    2884.1761 
   73600       1134.3    88.261186      2204118          147  0.007193656    160.81725    2845.4368 
   73700    1041.9194    84.371308      2204118          147  0.007193656    164.46165    2630.4382 
   73800    1069.6085    87.885366      2204118          147  0.007193656    178.45306    2709.9631 
   73900    1109.5756    95.929608      2204118          147  0.007193656    223.02439     2849.127 
   74000    1130.0045    94.351251      2204118          147  0.007193656    202.93084    2877.3838 
   74100    1083.8869     91.28854      2204118          147  0.007193656    196.71826    2762.0218 
   74200    1063.3499      87.9836      2204118          147  0.007193656    180.01367     2696.711 
   74300    1130.2179    93.852124      2204118          147  0.007193656    200.75746    2875.7156 
   74400    1160.4418    96.214816      2204118          147  0.007193656    209.00486    2955.4959 
   74500    1109.5735    90.141948      2204118          147  0.007193656    184.87965    2810.9774 
   74600    1078.6555    86.690823      2204118          147  0.007193656    171.80317    2724.7252 
   74700    1083.4403    89.111059      2204118          147  0.007193656    188.61069    2752.8573 
   74800    1147.1708     87.28819      2204118          147  0.007193656    151.97822    2867.0597 
   74900    1123.5488    88.154071      2204118          147  0.007193656    167.75684    2826.9308 
   75000    1036.5981    86.347232      2204118          147  0.007193656    185.04772    2638.4299 
   75100    1083.4619    87.727422      2204118          147  0.007193656    177.37893    2741.6766 
   75200     1137.982    87.470357      2204118          147  0.007193656    154.29573    2847.6297 
   75300     1086.731    93.643958      2204118          147  0.007193656    216.04125    2788.0761 
   75400    1066.5894     96.30552      2204118          147  0.007193656    241.53344    2765.8979 
   75500    1182.1141    93.014381      2204118          147  0.007193656    177.13474    2974.9188 
   75600    1151.8016    91.836421      2204118          147  0.007193656    181.98683    2908.0283 
   75700    1099.3619     89.01966      2204118          147  0.007193656    180.75684    2782.6861 
   75800    1094.9449    85.114581      2204118          147  0.007193656    153.55795    2745.0332 
   75900    1086.9035     87.23888      2204118          147  0.007193656    172.49483    2744.9379 
[...]
  381700    1031.0585    84.183406      2204118          147  0.007193656    166.06248    2606.3337 
  381800    1049.2305    88.233469      2204118          147  0.007193656     188.8619    2672.1421 
  381900    1101.5186    92.827175      2204118          147  0.007193656    204.53771    2811.5714 
  382000    1127.3321    93.308988      2204118          147  0.007193656    199.53959    2867.6678 
  382100    1099.7007    91.049042      2204118          147  0.007193656    193.60122    2796.3323 
  382200    1051.3529    87.201996      2204118          147  0.007193656    184.32376    2672.6271 
  382300    1077.0823    83.367549      2204118          147  0.007193656    147.23263    2696.4313 
  382400    1147.4108    92.368352      2204118          147  0.007193656    188.55857    2904.2081 
  382500    1130.6757    90.119933      2204118          147  0.007193656    175.35029    2851.3918 
  382600    1070.9302    92.179189      2204118          147  0.007193656    213.60472    2748.2428 
  382700    1095.1124    86.731918      2204118          147  0.007193656    165.08299    2756.9548 
  382800    1113.8965    86.618289      2204118          147  0.007193656    156.70996    2793.0392 
  382900    1132.6359     95.87184      2204118          147  0.007193656    217.43023    2898.1112 
  383000    1153.8351    96.996284      2204118          147  0.007193656    215.41304    2946.2675 
  383100    1082.5922    93.664081      2204118          147  0.007193656    215.38309    2777.6225 
  383200     1070.693    91.747531      2204118          147  0.007193656    207.10464    2741.1815 
  383300    1109.9884    91.985122      2204118          147  0.007193656    197.32792    2824.4077 
  383400    1155.6932    87.712467      2204118          147  0.007193656    150.17828    2885.4304 
  383500    1035.7966    91.413458      2204118          147  0.007193656    223.15792    2674.6432 
  383600    1048.1433    89.993728      2204118          147  0.007193656    208.58606    2689.2929 
  383700    1128.8941     87.86171      2204118          147  0.007193656    165.43724    2837.2622 
  383800    1123.9679    87.125835      2204118          147  0.007193656    163.21369    2823.3795 
  383900    1078.9253    85.737704      2204118          147  0.007193656    168.53489    2722.0955 
  384000    1068.6767    86.540636      2204118          147  0.007193656     176.2519    2705.5565 
  384100    1164.6326    91.622355      2204118          147  0.007193656    177.77617    2934.1857 
  384200    1142.9054    93.363441      2204118          147  0.007193656    197.12145    2902.1078 
  384300     1093.547    88.634658      2204118          147  0.007193656    178.06364    2766.2305 
  384400    1075.5766    90.321396      2204118          147  0.007193656    197.73283    2743.3679 
  384500    1128.2794    87.814182      2204118          147  0.007193656    159.50437    2829.8745 
  384600    1137.4123    89.685856      2204118          147  0.007193656    169.58018    2861.5658 
  384700    1043.8538    88.252817      2204118          147  0.007193656    190.90122    2661.4559 
  384800    1052.2422    90.707678      2204118          147  0.007193656    204.57678    2694.9848 
  384900    1106.6187    96.620322      2204118          147  0.007193656    227.47536    2846.5796 
  385000    1113.5417    99.213507      2204118          147  0.007193656    244.87093    2880.3605 
  385100    1112.3337    90.746297      2204118          147  0.007193656    184.25401    2816.8846 
  385200    1060.0364    86.015955      2204118          147  0.007193656    170.78257    2679.6376 
  385300    1062.2339    86.898784      2204118          147  0.007193656    177.87213    2691.9282 
  385400    1173.5925    90.556277      2204118          147  0.007193656    164.28382    2941.8993 
  385500    1122.7195     91.82791      2204118          147  0.007193656    191.66065    2848.8719 
  385600    1084.3384    87.081472      2204118          147  0.007193656    169.27285    2735.6451 
  385700     1066.778    90.898537      2204118          147  0.007193656     204.4569    2729.2679 
  385800    1137.7307     91.59338      2204118          147  0.007193656    184.08266    2876.8219 
  385900    1141.5517    91.942398      2204118          147  0.007193656     183.5421    2885.3246 
  386000    1074.4338    95.817464      2204118          147  0.007193656    234.91807    2777.8485 
  386100    1091.4006    94.464924      2204118          147  0.007193656    218.47892    2801.5657 
  386200    1108.0218    94.257554      2204118          147  0.007193656    212.67757    2835.1028 
  386300    1114.3982    89.088819      2204118          147  0.007193656    173.49088    2811.0075 
  386400     1052.325    86.086029      2204118          147  0.007193656    175.50974    2666.1139 
  386500    1068.2051    82.334155      2204118          147  0.007193656    141.84918    2670.0376 
  386600    1131.5696    89.530321      2204118          147  0.007193656    172.01583    2850.1732 
  386700    1109.7386    96.437138      2204118          147  0.007193656    230.09269     2856.581 
  386800    1102.7279    95.640477      2204118          147  0.007193656    226.99642    2836.8922 
  386900    1113.9071    87.977685      2204118          147  0.007193656     167.0361    2803.3904 
  387000     1047.225    84.625727      2204118          147  0.007193656    168.21332     2646.747 
  387100    1047.2296    81.638896      2204118          147  0.007193656    147.04102    2625.5856 
  387200    1132.7549    84.956727      2204118          147  0.007193656    140.60872    2821.5712 
  387300    1111.8166    90.312204      2204118          147  0.007193656    188.78755    2820.1941 
  387400    1103.3833     84.30308      2204118          147  0.007193656    146.85402    2758.3011 
  387500     1069.718    80.994129      2204118          147  0.007193656    133.83968    2665.6087 
  387600    1056.5475    86.137865      2204118          147  0.007193656     175.6268    2676.2246 
  387700    1136.2551    93.876692      2204118          147  0.007193656    202.17963    2891.4263 
  387800    1130.5993    92.886154      2204118          147  0.007193656    196.66177    2872.5226 
  387900    1095.1878    84.210318      2204118          147  0.007193656    146.02449    2738.0748 
  388000    1068.4035    85.315529      2204118          147  0.007193656    165.64191    2694.3001 
  388100    1105.3016    85.521054      2204118          147  0.007193656    153.46785     2769.455 
  388200    1093.6203    93.051057      2204118          147  0.007193656    213.69302    2802.0332 
  388300    1116.1749    88.243938      2204118          147  0.007193656    168.24967    2809.9713 
  388400    1093.2585    90.966781      2204118          147  0.007193656    198.82256    2786.3066 
  388500    1103.5497    87.664028      2204118          147  0.007193656    170.55661    2782.3974 
  388600    1099.7401    88.066536      2204118          147  0.007193656    174.09097    2776.9155 
  388700    1090.5098     89.06202      2204118          147  0.007193656    183.86078    2764.8392 
  388800    1105.6058    88.715254      2204118          147  0.007193656    175.33717    2792.0442 
  388900    1111.3823    94.229069      2204118          147  0.007193656    215.90761    2846.2863 
  389000    1141.7964    89.211776      2204118          147  0.007193656    167.41321    2869.7748 
  389100    1064.5033    87.718182      2204118          147  0.007193656    184.87685     2704.304 
  389200     1070.985    84.538922      2204118          147  0.007193656    159.62663    2694.3944 
  389300    1122.4086     83.74847      2204118          147  0.007193656    134.49797    2790.9734 
  389400    1095.5934    91.710169      2204118          147  0.007193656     203.3917    2796.4019 
  389500    1107.3892    88.696815      2204118          147  0.007193656    175.67233    2796.6003 
  389600    1108.6063    86.087362      2204118          147  0.007193656    156.39846    2780.2069 
  389700    1076.0254    88.320538      2204118          147  0.007193656    184.37022    2731.0675 
  389800    1083.6951    89.963426      2204118          147  0.007193656    193.42821     2758.278 
  389900    1149.3432    95.383043      2204118          147  0.007193656    208.90209    2929.1253 
  390000    1129.6652     96.46451      2204118          147  0.007193656    222.62621    2896.2762 
  390100    1085.1433    89.264028      2204118          147  0.007193656    184.30483    2752.5821 
  390200    1067.7652    91.352978      2204118          147  0.007193656    205.34825    2732.4956 
  390300    1083.2269     96.18699      2204118          147  0.007193656    236.80266    2800.5442 
  390400    1129.4486    90.171945      2204118          147  0.007193656    175.06731    2848.2048 
  390500    1093.7051    91.970722      2204118          147  0.007193656    201.82819    2790.3691 
  390600    1042.4606    90.119574      2204118          147  0.007193656    204.98121    2672.2386 
  390700    1019.5511     92.67083      2204118          147  0.007193656    233.49371    2646.5298 
  390800    1132.6798     88.63929      2204118          147  0.007193656     164.3384    2845.1232 
  390900    1118.9498     87.46242      2204118          147  0.007193656    162.07186    2810.3611 
  391000    1062.8494    89.561843      2204118          147  0.007193656    199.39595    2714.9088 
  391100    1097.2414    85.748566      2204118          147  0.007193656    158.56201    2755.4726 
  391200    1157.7431    90.770471      2204118          147  0.007193656    173.90582    2914.0095 
  391300       1136.2     91.68419      2204118          147  0.007193656    185.84082    2874.9572 
  391400    1051.0631    91.462077      2204118          147  0.007193656    213.54417    2701.1616 
  391500    1086.4715    90.929157      2204118          147  0.007193656    195.44098    2766.8617 
  391600    1112.0487    96.813007      2204118          147  0.007193656    230.71853    2862.6743 
  391700    1131.6633     92.85711      2204118          147  0.007193656    193.72966    2872.1087 
  391800    1059.5028    89.487524      2204118          147  0.007193656    196.72409    2704.3163 
  391900    1051.3553    83.743419      2204118          147  0.007193656    157.67579    2645.9848 
  392000    1094.6968     88.69098      2204118          147  0.007193656    180.58116    2771.4693 
  392100     1115.236    86.228699      2204118          147  0.007193656    155.03778    2794.5373 
  392200    1074.1835    93.221241      2204118          147  0.007193656    223.48337    2765.8213 
  392300    1126.3231    87.316144      2204118          147  0.007193656    161.49912    2827.2391 
  392400    1120.4973    87.983771      2204118          147  0.007193656    170.08239    2822.0342 
  392500    1061.4467    82.470015      2204118          147  0.007193656    148.76392    2660.9568 
  392600    1060.8372    83.486465      2204118          147  0.007193656     154.6026     2665.353 
  392700    1099.7384     92.56754      2204118          147  0.007193656    204.88637    2807.7067 
  392800    1083.6652    102.40573      2204118          147  0.007193656    282.77005    2847.5489 
  392900    1121.3451    96.677487      2204118          147  0.007193656    225.24066    2879.1989 
  393000    1100.4627    93.031358      2204118          147  0.007193656    206.44674    2810.9814 
  393100    1044.7653    89.641483      2204118          147  0.007193656    202.59342    2675.3054 
  393200    1076.6194    88.777788      2204118          147  0.007193656    185.06829    2733.1715 
  393300    1178.4869    85.283564      2204118          147  0.007193656    122.65815    2911.8574 
  393400    1110.6604    88.282538      2204118          147  0.007193656    170.58864    2799.2587 
  393500    1077.4782    87.954893      2204118          147  0.007193656    179.62042    2729.7561 
  393600     1096.614     87.55153      2204118          147  0.007193656    169.98244    2765.4082 
  393700    1139.3255    92.198234      2204118          147  0.007193656    189.18421    2885.6978 
  393800    1160.6447    95.190159      2204118          147  0.007193656     203.1914    2950.1625 
  393900    1077.4272    89.016124      2204118          147  0.007193656    187.24736    2737.2624 
  394000     1069.284    85.381108      2204118          147  0.007193656    162.14074    2692.8827 
  394100    1096.7939    90.299865      2204118          147  0.007193656    187.65945    2783.5108 
  394200    1128.2933    95.901596      2204118          147  0.007193656    217.96308     2888.366 
  394300    1123.2065    93.402534      2204118          147  0.007193656    201.32136    2859.6852 
  394400    1037.3931    90.411884      2204118          147  0.007193656    211.64847    2666.9122 
  394500    1051.0996    84.778713      2204118          147  0.007193656    165.48409    2653.1879 
  394600    1133.2236    96.307746      2204118          147  0.007193656    223.04754    2905.1194 
  394700    1122.8672    92.872622      2204118          147  0.007193656    200.43796    2857.9988 
  394800    1069.6302    89.822575      2204118          147  0.007193656     197.0014    2728.5627 
  394900    1073.7303    89.653345      2204118          147  0.007193656     194.3118    2735.5773 
  395000    1137.9286    90.062149      2204118          147  0.007193656    173.43523    2866.6428 
  395100    1124.1115    92.802093      2204118          147  0.007193656    197.80245    2858.3081 
  395200    1047.4733    92.045693      2204118          147  0.007193656    219.45159    2698.5727 
  395300    1054.2789    88.553812      2204118          147  0.007193656    192.34849     2687.577 
  395400    1166.2705    89.743918      2204118          147  0.007193656    161.69413    2921.9803 
  395500    1121.1755    89.479736      2204118          147  0.007193656    176.02113     2829.578 
  395600    1080.1468     84.79913      2204118          147  0.007193656    155.70017    2712.1519 
  395700    1084.6295    84.465129      2204118          147  0.007193656    152.04996    2719.1111 
  395800    1128.8874    87.908058      2204118          147  0.007193656    161.17253    2832.9817 
  395900    1159.0928    93.865045      2204118          147  0.007193656    192.76982     2936.068 
  396000    1104.2741    92.240575      2204118          147  0.007193656    200.70158     2814.257 
  396100    1063.0154    85.803294      2204118          147  0.007193656    169.07369    2684.9794 
  396200    1079.5591     89.22419      2204118          147  0.007193656    190.17351    2745.2343 
  396300    1127.2314    91.841591      2204118          147  0.007193656     189.8763    2857.7662 
  396400    1096.1421    100.58683      2204118          147  0.007193656    266.06723    2860.3759 
  396500    1097.5937    89.451366      2204118          147  0.007193656    182.55375     2780.298 
  396600    1031.5962    87.331591      2204118          147  0.007193656    192.66181    2634.2058 
  396700    1074.8026    92.588324      2204118          147  0.007193656    216.05245    2759.8557 
  396800    1121.9861      95.7797      2204118          147  0.007193656    221.26707    2876.7426 
  396900    1112.8163    95.050566      2204118          147  0.007193656    218.43405    2852.2066 
  397000    1085.1203    89.817924      2204118          147  0.007193656     189.4102    2757.6329 
  397100    1041.3463    90.564786      2204118          147  0.007193656    212.02163    2676.6416 
  397200    1120.4006    89.524803      2204118          147  0.007193656    176.44402    2828.1669 
  397300    1149.6537    91.355247      2204118          147  0.007193656    181.18589     2902.144 
  397400    1099.7704    85.583216      2204118          147  0.007193656    155.92577    2758.8218 
  397500    1078.7844    83.130317      2204118          147  0.007193656    144.95619    2698.1835 
  397600    1084.7403    88.188685      2204118          147  0.007193656    179.81766    2747.1411 
  397700    1133.7095    89.674644      2204118          147  0.007193656    172.40912    2855.6311 
  397800    1112.0264    92.093052      2204118          147  0.007193656     199.1748     2831.078 
  397900    1023.2821    86.164373      2204118          147  0.007193656    187.12334    2608.9898 
  398000    1069.2296    88.982702      2204118          147  0.007193656    192.27689    2722.8901 
  398100    1126.9789     88.80936      2204118          147  0.007193656    169.85426    2837.1463 
  398200    1115.2492    87.735345      2204118          147  0.007193656    165.74082    2805.2715 
  398300    1067.6585    85.926663      2204118          147  0.007193656    168.04734    2694.9422 
  398400    1054.6916    91.261043      2204118          147  0.007193656      212.773    2708.9783 
  398500    1165.9488    89.345947      2204118          147  0.007193656    156.10307    2915.6278 
  398600    1112.3663     92.07567      2204118          147  0.007193656    194.99065    2827.6983 
  398700    1075.7603    88.858038      2204118          147  0.007193656    183.54199    2729.6118 
  398800    1085.2223    88.610123      2204118          147  0.007193656    178.46447    2746.9287 
  398900    1139.3555    92.169827      2204118          147  0.007193656    185.46401    2882.0486 
  399000    1173.7187    99.425811      2204118          147  0.007193656    226.45775     3004.372 
  399100    1101.0795    93.945071      2204118          147  0.007193656    212.82977    2818.8243 
  399200    1072.1684     88.18275      2204118          147  0.007193656    182.03333     2719.602 
  399300      1097.35    87.477699      2204118          147  0.007193656    167.09888    2764.2665 
  399400    1118.5642    95.879239      2204118          147  0.007193656    222.10127    2869.4777 
  399500    1154.5572    91.948164      2204118          147  0.007193656    180.84982    2913.4133 
  399600    1066.3301    86.316059      2204118          147  0.007193656    173.08459    2696.8353 
  399700    1067.4081    84.852918      2204118          147  0.007193656    161.69156    2687.9937 
  399800    1108.6745    89.219091      2204118          147  0.007193656    178.52561    2802.4957 
  399900    1125.4797    90.786465      2204118          147  0.007193656    181.83735    2845.5813 
  400000    1076.1151    94.242248      2204118          147  0.007193656    223.68805    2770.5977 
  400100    1050.7699    92.043102      2204118          147  0.007193656    215.99152    2702.9151 
Loop time of 26.6689 on 1 procs for 400000 steps with 795 atoms

Performance: 323.973 ns/day, 0.074 hours/ns, 14998.732 timesteps/s
96.4% CPU use with 1 MPI tasks x no OpenMP threads

MPI task timing breakdown:
Section |  min time  |  avg time  |  max time  |%varavg| %total
---------------------------------------------------------------
Pair    | 11.931     | 11.931     | 11.931     |   0.0 | 44.74
Neigh   | 5.1955     | 5.1955     | 5.1955     |   0.0 | 19.48
Comm    | 0.93877    | 0.93877    | 0.93877    |   0.0 |  3.52
Output  | 1.6411     | 1.6411     | 1.6411     |   0.0 |  6.15
Modify  | 6.2619     | 6.2619     | 6.2619     |   0.0 | 23.48
Other   |            | 0.7008     |            |       |  2.63

Nlocal:            795 ave         795 max         795 min
Histogram: 1 0 0 0 0 0 0 0 0 0
Nghost:            155 ave         155 max         155 min
Histogram: 1 0 0 0 0 0 0 0 0 0
Neighs:           1649 ave        1649 max        1649 min
Histogram: 1 0 0 0 0 0 0 0 0 0

Total # of neighbors = 1649
Ave neighs/atom = 2.0742138
Neighbor list builds = 16924
Dangerous builds = 21

write_data graphene_single_layer_LJ_795C_after_temp_1100K.data
System init for write_data ...
  generated 0 of 0 mixed pair_coeff terms from geometric mixing rule
Total wall time: 0:00:26
