# System definition
read_data graphene_single_layer_x-45_y-45_795_C.data
Reading data file ...
  orthogonal box = (-51 -51 -51) to (96 96 51)
  1 by 1 by 1 MPI processor grid
  reading atoms ...
  795 atoms
  read_data CPU = 0.016 seconds
pair_style lj/cut 6
pair_coeff      1 1 0.066047 3.4

# Virtual force wall to keep the cylinder shape
#region myCylinder cylinder z 0. 0. 20.3 -22.079997 505.920003 units box
#fix wall all wall/region myCylinder lj93 1.0 1.0 2.5

# Minimization
timestep 0.25
thermo 100
thermo_style custom step temp press vol lx density pe etotal
dump 2 all custom 1000 graphene_single_layer_LJ_795C_after_temp_500K.lammpstrj id type x y z
min_style cg
minimize 1.0e-6 1.0e-6 100 1000
WARNING: Using 'neigh_modify every 1 delay 0 check yes' setting during minimization (../min.cpp:187)
  generated 0 of 0 mixed pair_coeff terms from geometric mixing rule
Neighbor list info ...
  update every 1 steps, delay 0 steps, check yes
  max neighbors/atom: 10000, page size: 100000
  master list distance cutoff = 6.4
  ghost atom cutoff = 6.4
  binsize = 3.2, bins = 46 46 32
  1 neighbor lists, perpetual/occasional/extra = 1 0 0
  (1) pair lj/cut, perpetual
      attributes: half, newton on
      pair build: half/bin/atomonly/newton
      stencil: half/bin/3d
      bin: standard
Per MPI rank memory allocation (min/avg/max) = 5.96 | 5.96 | 5.96 Mbytes
Step Temp Press Volume Lx Density PotEng TotEng 
       0            0    1335313.5      2204118          147  0.007193656     10699602     10699602 
     100            0     61841.43      2204118          147  0.007193656    488621.59    488621.59 
Loop time of 0.0636355 on 1 procs for 100 steps with 795 atoms

99.9% CPU use with 1 MPI tasks x no OpenMP threads

Minimization stats:
  Stopping criterion = max iterations
  Energy initial, next-to-last, final = 
      10699602.3573369   495470.853828546   488621.590421788
  Force two-norm initial, final = 694694.42 29375.63
  Force max component initial, final = 79169.705 9280.0147
  Final line search alpha, max atom move = 3.8811533e-05 0.36017159
  Iterations, force evaluations = 100 117

MPI task timing breakdown:
Section |  min time  |  avg time  |  max time  |%varavg| %total
---------------------------------------------------------------
Pair    | 0.042308   | 0.042308   | 0.042308   |   0.0 | 66.48
Neigh   | 0.017066   | 0.017066   | 0.017066   |   0.0 | 26.82
Comm    | 0.0006455  | 0.0006455  | 0.0006455  |   0.0 |  1.01
Output  | 6.51e-05   | 6.51e-05   | 6.51e-05   |   0.0 |  0.10
Modify  | 0          | 0          | 0          |   0.0 |  0.00
Other   |            | 0.003551   |            |       |  5.58

Nlocal:            795 ave         795 max         795 min
Histogram: 1 0 0 0 0 0 0 0 0 0
Nghost:              0 ave           0 max           0 min
Histogram: 1 0 0 0 0 0 0 0 0 0
Neighs:          13073 ave       13073 max       13073 min
Histogram: 1 0 0 0 0 0 0 0 0 0

Total # of neighbors = 13073
Ave neighs/atom = 16.444025
Neighbor list builds = 35
Dangerous builds = 0
#timestep 0.25
fix 1 all nvt temp 500.0 500.0 $(100.0*dt)
fix 1 all nvt temp 500.0 500.0 25
run 400000
  generated 0 of 0 mixed pair_coeff terms from geometric mixing rule
Per MPI rank memory allocation (min/avg/max) = 4.835 | 4.835 | 4.835 Mbytes
Step Temp Press Volume Lx Density PotEng TotEng 
     100            0     61841.43      2204118          147  0.007193656    488621.59    488621.59 
     200    20000.416      22898.3      2204118          147  0.007193656    171013.97    218350.21 
     300    6906.5089    11633.179      2204118          147  0.007193656    87051.612    103397.68 
     400    3734.5672    7572.6426      2204118          147  0.007193656    56357.062    65195.898 
     500    2425.7961    5499.4448      2204118          147  0.007193656    40641.057    46382.342 
     600    1751.7065    4249.0573      2204118          147  0.007193656    31159.249    35305.123 
     700    1354.2537    3413.1811      2204118          147  0.007193656    24826.794    28031.992 
     800    1098.1478    2816.5183      2204118          147  0.007193656    20314.176    22913.232 
     900    923.38439    2370.3585      2204118          147  0.007193656    16946.729    19132.161 
    1000    799.94875    2024.6442      2204118          147  0.007193656    14343.025    16236.314 
    1100    710.64845    1749.1423      2204118          147  0.007193656    12272.634    13954.571 
    1200    645.04364    1524.6999      2204118          147  0.007193656    10589.752    12116.418 
    1300    596.95281    1338.5191      2204118          147  0.007193656    9196.8009    10609.647 
    1400    562.49615    1181.4829      2204118          147  0.007193656    8024.2608    9355.5559 
    1500    538.13482    1047.2427      2204118          147  0.007193656    7024.2465    8297.8842 
    1600    521.20119    931.33677      2204118          147  0.007193656    6163.0693    7396.6291 
    1700    509.70305    830.58159      2204118          147  0.007193656    5416.7204    6623.0668 
    1800    502.65957    742.43025      2204118          147  0.007193656    4765.7825    5955.4587 
    1900    499.10798    664.68294      2204118          147  0.007193656    4193.5798    5374.8502 
    2000    497.07846    595.73686      2204118          147  0.007193656     3688.397     4864.864 
    2100    495.35367    534.50001      2204118          147  0.007193656    3242.1741    4414.5589 
    2200    494.26257    480.09776      2204118          147  0.007193656    2848.0366     4017.839 
    2300    494.17527      431.713      2204118          147  0.007193656    2499.3892     3668.985 
    2400    494.66254    388.58775      2204118          147  0.007193656    2190.5279     3361.277 
    2500     495.0055    350.06548      2204118          147  0.007193656    1916.5928    3088.1536 
    2600    495.04102    315.64789      2204118          147  0.007193656    1673.8733    2845.5182 
    2700     495.2273    284.91188      2204118          147  0.007193656    1458.8995    2630.9852 
    2800    495.81099    257.45273      2204118          147  0.007193656    1268.3956    2441.8628 
    2900    496.43167    232.89815      2204118          147  0.007193656    1099.7147    2274.6509 
    3000    496.70429    210.89141      2204118          147  0.007193656    950.03084    2125.6123 
    3100    496.80038    191.17641      2204118          147  0.007193656    817.40698    1993.2158 
    3200     497.1235    173.48544      2204118          147  0.007193656    699.32904    1875.9026 
    3300    497.63929    157.63474      2204118          147  0.007193656    594.78767     1772.582 
    3400    497.94768    143.37916      2204118          147  0.007193656    501.73727    1680.2615 
    3500    497.96459    130.56385      2204118          147  0.007193656    419.16204    1597.7263 
    3600    498.06397    119.05755      2204118          147  0.007193656    345.97705    1524.7765 
    3700    498.43848    108.73671      2204118          147  0.007193656    281.27804    1460.9639 
    3800    498.77488    99.446682      2204118          147  0.007193656    223.86988    1404.3519 
    3900    498.78952    91.086623      2204118          147  0.007193656    173.24274    1353.7594 
    4000    498.71367    83.566947      2204118          147  0.007193656    128.55756    1308.8947 
    4100    498.89999    76.825128      2204118          147  0.007193656    89.274458    1270.0526 
    4200    499.23011     70.76646      2204118          147  0.007193656    54.620347    1236.1798 
    4300    499.32229    65.328485      2204118          147  0.007193656    24.458445    1206.2361 
    4400    499.17592    60.458863      2204118          147  0.007193656   -1.5933197    1179.8379 
    4500    499.16009    56.110386      2204118          147  0.007193656   -24.204973    1157.1888 
    4600    499.40748    52.263331      2204118          147  0.007193656   -43.420062    1138.5592 
    4700    499.65024    48.844802      2204118          147  0.007193656   -59.691338    1122.8625 
    4800    499.66447    45.779048      2204118          147  0.007193656   -73.445059    1109.1424 
    4900    499.49723    43.030245      2204118          147  0.007193656   -85.096698     1097.095 
    5000    499.47423    40.586506      2204118          147  0.007193656   -94.940447    1087.1968 
    5100     499.7602    38.401837      2204118          147  0.007193656   -103.37901     1079.435 
    5200    499.99006    36.396704      2204118          147  0.007193656   -110.98158    1072.3765 
    5300    499.81076    34.557947      2204118          147  0.007193656   -117.54215    1065.3915 
    5400     499.5269    32.895148      2204118          147  0.007193656    -123.1442    1059.1177 
    5500    499.65018     31.42774      2204118          147  0.007193656   -127.74673    1054.8069 
    5600    500.03231    30.127425      2204118          147  0.007193656   -131.45125    1052.0068 
    5700    500.08498    28.940794      2204118          147  0.007193656   -134.44067    1049.1421 
    5800    499.75324    27.855314      2204118          147  0.007193656    -136.7488    1046.0488 
    5900    499.61417    26.890872      2204118          147  0.007193656   -138.44795    1044.0205 
    6000    499.91916    26.050685      2204118          147  0.007193656   -139.61897    1043.5713 
    6100    500.17662    25.303704      2204118          147  0.007193656   -140.28308    1043.5165 
    6200    499.97767    24.618831      2204118          147  0.007193656   -140.52087    1042.8079 
    6300    499.68263    24.006193      2204118          147  0.007193656   -140.35874    1042.2717 
    6400    499.80885    23.478051      2204118          147  0.007193656   -139.92682    1043.0024 
    6500    500.15889    23.020508      2204118          147  0.007193656   -139.22472    1044.5329 
    6600    500.15336    22.601618      2204118          147  0.007193656   -138.25908    1045.4855 
    6700    499.81172    22.218482      2204118          147  0.007193656   -137.05149    1045.8845 
    6800     499.7198    21.891603      2204118          147  0.007193656   -135.69509    1047.0233 
    6900    500.04257    21.626761      2204118          147  0.007193656   -134.18177    1049.3006 
    7000    500.24491    21.394542      2204118          147  0.007193656   -132.52015    1051.4411 
    7100    499.99314    21.175299      2204118          147  0.007193656   -130.72614    1052.6392 
    7200    499.71963    20.985253      2204118          147  0.007193656   -128.84694    1053.8711 
    7300    499.89239    20.843757      2204118          147  0.007193656   -126.90761    1056.2193 
    7400    500.22611    20.735526      2204118          147  0.007193656   -124.89768    1059.0191 
    7500     500.1622    20.630162      2204118          147  0.007193656   -122.84018    1060.9253 
    7600    499.81258    20.530911      2204118          147  0.007193656   -120.74884    1062.1892 
    7700    499.77127    20.464854      2204118          147  0.007193656    -118.6344    1064.2058 
    7800    500.11191    20.433694      2204118          147  0.007193656   -116.50506    1067.1414 
    7900    500.26327     20.40755      2204118          147  0.007193656   -114.37043    1069.6343 
    8000    499.97215    20.374352      2204118          147  0.007193656   -112.20609    1071.1096 
    8100    499.73245    20.352251      2204118          147  0.007193656   -110.09609    1072.6523 
    8200     499.9511    20.362963      2204118          147  0.007193656   -107.99464    1075.2712 
    8300    500.26166    20.386817      2204118          147  0.007193656   -105.91489     1078.086 
    8400    500.14112    20.397593      2204118          147  0.007193656   -103.85388    1079.8617 
    8500    499.79379    20.403392      2204118          147  0.007193656   -101.83301    1081.0605 
    8600    499.80722    20.434276      2204118          147  0.007193656   -99.821463    1083.1039 
    8700    500.16084    20.486415      2204118          147  0.007193656   -97.856352    1085.9059 
    8800    500.25815    20.529984      2204118          147  0.007193656   -95.938537     1088.054 
    8900    499.93476    20.556358      2204118          147  0.007193656   -94.070659    1089.1565 
    9000    499.73751     20.59641      2204118          147  0.007193656   -92.179684    1090.5807 
    9100    499.99987    20.657036      2204118          147  0.007193656   -90.417668    1092.9636 
    9200    500.27936    20.723404      2204118          147  0.007193656   -88.665204    1095.3776 
    9300    500.10362    20.769526      2204118          147  0.007193656   -86.965194    1096.6616 
    9400    499.76894    20.810207      2204118          147  0.007193656   -85.309802    1097.5249 
    9500    499.84046    20.872946      2204118          147  0.007193656   -83.699032     1099.305 
    9600    500.19807    20.950607      2204118          147  0.007193656   -82.149015    1101.7014 
    9700    500.23838    21.016267      2204118          147  0.007193656    -80.61001    1103.3358 
    9800    499.89349    21.064552      2204118          147  0.007193656   -79.110244    1104.0193 
    9900    499.74612    21.120988      2204118          147  0.007193656   -77.693867    1105.0869 
   10000    500.04591     21.20037      2204118          147  0.007193656   -76.310969    1107.1793 
   10100    500.28824    21.276911      2204118          147  0.007193656   -74.972403    1109.0914 
   10200    500.06406    21.330709      2204118          147  0.007193656   -73.672326    1109.8609 
   10300    499.75072    21.377402      2204118          147  0.007193656   -72.459443    1110.3322 
   10400    499.87594    21.445882      2204118          147  0.007193656   -71.287484    1111.8005 
   10500    500.22787    21.528786      2204118          147  0.007193656   -70.110509    1113.8104 
   10600    500.21182    21.595684      2204118          147  0.007193656   -68.952983    1114.9299 
   10700    499.85341    21.643476      2204118          147  0.007193656   -67.888921    1115.1457 
   10800    499.75651    21.703961      2204118          147  0.007193656   -66.881295     1115.924 
   10900    500.08506    21.786064      2204118          147  0.007193656   -65.912606    1117.6703 
   11000    500.28542    21.863317      2204118          147  0.007193656   -64.967593    1119.0895 
   11100    500.01905    21.921388      2204118          147  0.007193656   -64.005098    1119.4216 
   11200    499.73618    21.978561      2204118          147  0.007193656     -63.0867    1119.6705 
   11300    499.91298    22.054835      2204118          147  0.007193656   -62.267422    1120.9082 
   11400    500.25052    22.140737      2204118          147  0.007193656   -61.459435    1122.5151 
   11500    500.17872    22.207607      2204118          147  0.007193656   -60.671522    1123.1331 
   11600    499.81982    22.260393      2204118          147  0.007193656    -59.91675    1123.0384 
   11700    499.78151    22.326323      2204118          147  0.007193656   -59.233165    1123.6313 
   11800    500.13269    22.407598      2204118          147  0.007193656   -58.640542    1125.0551 
   11900    500.28287    22.482291      2204118          147  0.007193656   -58.051724    1125.9993 
   12000      499.941    22.550295      2204118          147  0.007193656   -57.435055    1125.8069 
   12100    499.41152    22.733968      2204118          147  0.007193656   -56.046307    1125.9425 
   12200    499.52151    23.110868      2204118          147  0.007193656   -53.607317    1128.6418 
   12300    499.85126    23.733364      2204118          147  0.007193656     -49.4358    1133.5938 
   12400    502.38009    23.629852      2204118          147  0.007193656   -51.796357    1137.2183 
   12500    497.40002     24.62801      2204118          147  0.007193656    -43.42824    1133.7998 
   12600    498.43112    25.243114      2204118          147  0.007193656   -40.366767    1139.3017 
   12700    502.02236    26.156891      2204118          147  0.007193656   -35.982578    1152.1855 
   12800    502.51411    26.791461      2204118          147  0.007193656   -32.668836    1156.6631 
   12900     498.4811    27.233273      2204118          147  0.007193656   -29.463737     1150.323 
   13000    492.82369    29.334673      2204118          147  0.007193656   -13.311877    1153.0851 
   13100    503.74185    30.340749      2204118          147  0.007193656   -11.277008    1180.9607 
   13200    508.92062    30.931109      2204118          147  0.007193656   -9.6621003    1194.8325 
   13300    502.11957    29.546296      2204118          147  0.007193656   -18.931946    1169.4662 
   13400     483.5402    31.050851      2204118          147  0.007193656   -2.7423525    1141.6828 
   13500    493.27955    33.334411      2204118          147  0.007193656     8.689751    1176.1656 
   13600    517.87529    35.144722      2204118          147  0.007193656    11.518551    1237.2067 
   13700    511.84348     35.64977      2204118          147  0.007193656      16.0692    1227.4815 
   13800    484.90454    35.514674      2204118          147  0.007193656     23.59289    1171.2471 
   13900    486.18996    35.763884      2204118          147  0.007193656    24.300002    1174.9965 
   14000    512.23501    36.347924      2204118          147  0.007193656    18.395103    1230.7341 
   14100    510.41669    38.418042      2204118          147  0.007193656    33.800473    1241.8359 
   14200    498.97231    36.851822      2204118          147  0.007193656    25.741767    1206.6911 
   14300    489.84101    35.485868      2204118          147  0.007193656    18.709889    1178.0475 
   14400    493.89665    36.128433      2204118          147  0.007193656     21.02913    1189.9655 
   14500    503.11906     39.11028      2204118          147  0.007193656    38.599695    1229.3634 
   14600    514.53492    39.457546      2204118          147  0.007193656    35.796401    1253.5787 
   14700    492.10233    41.529845      2204118          147  0.007193656    58.696815    1223.3865 
   14800    491.24622    41.084302      2204118          147  0.007193656    55.370592     1218.034 
   14900    509.55941    39.702706      2204118          147  0.007193656     39.04827    1245.0547 
   15000    507.94192    38.522674      2204118          147  0.007193656    31.835668    1234.0139 
   15100    496.41091    35.688789      2204118          147  0.007193656    15.558422    1190.4455 
   15200    482.10202    36.359266      2204118          147  0.007193656    25.521655     1166.543 
   15300    496.91509    38.561207      2204118          147  0.007193656    35.320636     1211.401 
   15400    517.72629    41.241725      2204118          147  0.007193656    46.699243    1272.0348 
   15500    514.33659    40.374228      2204118          147  0.007193656    40.925559    1258.2385 
   15600    489.64715     37.31863      2204118          147  0.007193656    26.991894    1185.8707 
   15700    478.68647    36.624406      2204118          147  0.007193656     25.36218    1158.2997 
   15800     499.6537    38.865016      2204118          147  0.007193656    33.222748    1215.7847 
   15900    517.65713    42.532231      2204118          147  0.007193656    52.592023    1277.7639 
   16000    511.73506    42.573726      2204118          147  0.007193656    54.361624    1265.5173 
   16100    493.11422    39.248675      2204118          147  0.007193656    36.498461     1203.583 
   16200    480.87126     38.41676      2204118          147  0.007193656    34.936266    1173.0447 
   16300    501.49518    38.938299      2204118          147  0.007193656    30.803461    1217.7238 
   16400     516.1369    40.990583      2204118          147  0.007193656    39.547374    1261.1212 
   16500    501.02807    42.338099      2204118          147  0.007193656    53.676581    1239.4914 
   16600    487.36587    42.720978      2204118          147  0.007193656    61.465913    1214.9455 
   16700    506.54225    39.806375      2204118          147  0.007193656    33.049597    1231.9151 
   16800    500.23017    41.543425      2204118          147  0.007193656    48.047505    1231.9739 
   16900    495.70625    42.867645      2204118          147  0.007193656     58.87301    1232.0923 
   17000    506.47712    41.940949      2204118          147  0.007193656     48.08477    1246.7962 
   17100    503.01539     41.54485      2204118          147  0.007193656    46.934519    1237.4528 
   17200    498.87486    39.427518      2204118          147  0.007193656    32.966148    1213.6848 
   17300    490.90525    39.411957      2204118          147  0.007193656    35.738289    1197.5948 
   17400    496.78453    40.570741      2204118          147  0.007193656    42.031493    1217.8028 
   17500    512.13346    40.756942      2204118          147  0.007193656    37.902394     1250.001 
   17600    507.15289      39.9449      2204118          147  0.007193656    33.625923    1233.9367 
   17700    484.00197     40.87447      2204118          147  0.007193656    48.614894    1194.1329 
   17800     488.4839    42.699033      2204118          147  0.007193656    60.314443    1216.4401 
   17900    524.39574     41.71436      2204118          147  0.007193656    40.347962    1281.4685 
   18000    517.24003    39.257525      2204118          147  0.007193656    25.414757    1249.5994 
   18100    474.43692    37.949265      2204118          147  0.007193656    31.416653    1154.2965 
   18200    471.62022    39.366691      2204118          147  0.007193656    42.494443    1158.7078 
   18300    516.04865    42.535799      2204118          147  0.007193656    48.183925    1269.5489 
   18400    525.63743    47.924217      2204118          147  0.007193656    82.963689     1327.023 
   18500     495.6786    49.292257      2204118          147  0.007193656    103.16987    1276.3237 
   18600    487.00475    46.416309      2204118          147  0.007193656     83.28565    1235.9106 
   18700    481.15023     51.87247      2204118          147  0.007193656    126.09797    1264.8666 
   18800    513.22667    54.705863      2204118          147  0.007193656    135.66199     1350.348 
   18900    525.76727    52.643283      2204118          147  0.007193656    114.70783    1359.0744 
   19000    483.78153    52.268001      2204118          147  0.007193656    126.50829    1271.5046 
   19100    479.54459    50.293573      2204118          147  0.007193656    112.52883    1247.4973 
   19200     503.2699    52.153988      2204118          147  0.007193656    117.35711    1308.4778 
   19300    512.37194    57.156792      2204118          147  0.007193656    150.62602    1363.2891 
   19400    513.58088    55.348408      2204118          147  0.007193656    134.97591    1350.5002 
   19500    491.10701    53.359219      2204118          147  0.007193656    127.39102     1289.725 
   19600    480.85616    54.619765      2204118          147  0.007193656    141.09809    1279.1707 
   19700    514.01905    53.278979      2204118          147  0.007193656    119.58918    1336.1505 
   19800    527.93296    51.012549      2204118          147  0.007193656    99.038867    1348.5311 
   19900     488.5646    49.663787      2204118          147  0.007193656    104.25402    1260.5707 
   20000     467.2469     50.20129      2204118          147  0.007193656     115.2508    1221.1136 
   20100    489.71349    57.558098      2204118          147  0.007193656    161.14579    1320.1817 
   20200    549.60258    59.558732      2204118          147  0.007193656    153.35527    1454.1344 
   20300    513.43173    60.971262      2204118          147  0.007193656    177.41368     1392.585 
   20400    474.47464    54.042296      2204118          147  0.007193656    138.98967    1261.9588 
   20500     461.6229    54.669368      2204118          147  0.007193656    148.20864    1240.7607 
   20600    518.70441      54.3448      2204118          147  0.007193656    123.39258    1351.0431 
   20700     539.2332    56.887491      2204118          147  0.007193656    134.35964    1410.5969 
   20800    496.06285    55.812225      2204118          147  0.007193656     141.0859    1315.1492 
   20900    463.12879    54.099602      2204118          147  0.007193656    138.89078    1235.0069 
   21000    497.07647    53.370928      2204118          147  0.007193656    120.17206    1296.6343 
   21100    517.91058    59.961128      2204118          147  0.007193656    162.19707    1387.9688 
   21200    526.82439    57.756455      2204118          147  0.007193656    142.62767    1389.4962 
   21300    484.97894    55.440175      2204118          147  0.007193656    140.53424    1288.3645 
   21400     447.7515    61.027119      2204118          147  0.007193656    196.61841    1256.3402 
   21500    533.54719    55.178192      2204118          147  0.007193656    119.89349    1382.6733 
   21600    518.93441    61.645447      2204118          147  0.007193656    173.38618     1401.581 
   21700    495.54204    57.109684      2204118          147  0.007193656    148.03838     1320.869 
   21800    478.29126    54.611954      2204118          147  0.007193656    137.38548    1269.3876 
   21900    509.50525    50.031051      2204118          147  0.007193656    93.531806    1299.4101 
   22000      502.702    53.780514      2204118          147  0.007193656    126.15983    1315.9364 
   22100    506.67666    51.585842      2204118          147  0.007193656    108.54351    1307.7272 
   22200    499.85342    49.379255      2204118          147  0.007193656    94.744464    1277.7791 
   22300    493.26351    47.737773      2204118          147  0.007193656    84.025289    1251.4632 
   22400    486.84291    50.908424      2204118          147  0.007193656    109.15466    1261.3965 
   22500    507.07509    53.203419      2204118          147  0.007193656     118.3588    1318.4855 
   22600    520.95356    52.721577      2204118          147  0.007193656     110.1462    1343.1199 
   22700    497.99439    51.157453      2204118          147  0.007193656    107.45548    1286.0903 
   22800    478.26929    50.678926      2204118          147  0.007193656    111.45693    1243.4071 
   22900    496.26226    51.368937      2204118          147  0.007193656    110.15167    1284.6869 
   23000    518.17491    53.201489      2204118          147  0.007193656    115.89404    1342.2913 
   23100    506.00843    53.847246      2204118          147  0.007193656     124.8075    1322.4096 
   23200    495.92316    49.778658      2204118          147  0.007193656     98.34086    1272.0735 
   23300    490.03978    47.381797      2204118          147  0.007193656    83.471205    1243.2793 
   23400    492.58987    48.419422      2204118          147  0.007193656      90.1687    1256.0123 
   23500    499.60716     52.95128      2204118          147  0.007193656    120.44905    1302.9009 
   23600    517.29979    54.953011      2204118          147  0.007193656    127.88841    1352.2145 
   23700    516.64277     52.49433      2204118          147  0.007193656    110.48864    1333.2597 
   23800    488.28992    48.355261      2204118          147  0.007193656    91.247499    1246.9141 
   23900    470.71919    48.422766      2204118          147  0.007193656    99.582169     1213.663 
   24000    501.90601    49.871764      2204118          147  0.007193656    99.047043    1286.9397 
   24100    522.57147    53.957413      2204118          147  0.007193656    120.83405     1357.637 
   24200    511.28573    54.597195      2204118          147  0.007193656    129.11434    1339.2066 
   24300    494.09133    49.682994      2204118          147  0.007193656    99.216569    1268.6137 
   24400     479.3915    47.830869      2204118          147  0.007193656    91.570431    1226.1766 
   24500     496.7309    48.781402      2204118          147  0.007193656    92.690778    1268.3352 
   24600     514.5385    52.071583      2204118          147  0.007193656    110.26582    1328.0566 
   24700    511.65154    51.404212      2204118          147  0.007193656    105.14977    1316.1078 
   24800    488.35359    49.611742      2204118          147  0.007193656    99.847178    1255.6645 
   24900    483.05049    49.151981      2204118          147  0.007193656    99.299847     1242.566 
   25000    511.09388    47.820078      2204118          147  0.007193656    79.104798     1288.743 
   25100    501.60166    52.838739      2204118          147  0.007193656    119.77537    1306.9477 
   25200    510.56235    50.175376      2204118          147  0.007193656    96.029889    1304.4101 
   25300    496.83301    48.309061      2204118          147  0.007193656    87.208937     1263.095 
   25400    478.67624     50.08816      2204118          147  0.007193656    107.45742    1240.3707 
   25500    503.61028    50.594866      2204118          147  0.007193656    102.38503    1294.3113 
   25600    513.98059     52.93858      2204118          147  0.007193656     116.9086    1333.3789 
   25700    514.36219    48.708231      2204118          147  0.007193656    86.649977    1304.0235 
   25800    488.34463    45.295509      2204118          147  0.007193656    72.991387    1228.7875 
   25900    479.20657    43.646433      2204118          147  0.007193656    64.692195    1198.8607 
   26000    497.32774    46.041823      2204118          147  0.007193656    76.248153    1253.3051 
   26100    524.42729    47.364547      2204118          147  0.007193656    76.166843    1317.3621 
   26200    507.21406    47.734798      2204118          147  0.007193656     85.36853    1285.8241 
   26300    487.62397    43.732866      2204118          147  0.007193656    63.000959    1217.0914 
   26400    483.34935    42.312466      2204118          147  0.007193656    54.050572     1198.024 
   26500    499.37963    44.916204      2204118          147  0.007193656    66.937739    1248.8511 
   26600    515.77447    47.350553      2204118          147  0.007193656    77.038065    1297.7541 
   26700    502.39523    49.596221      2204118          147  0.007193656    97.389755    1286.4403 
   26800    502.48267    45.833921      2204118          147  0.007193656      69.5249    1258.7824 
   26900     493.6718    43.499939      2204118          147  0.007193656    56.197212    1224.6015 
   27000    488.27184    44.599128      2204118          147  0.007193656    66.787392    1222.4112 
   27100    509.31224    44.846828      2204118          147  0.007193656    61.300909    1266.7224 
   27200    514.24041    44.820869      2204118          147  0.007193656    59.825496    1276.9108 
   27300    490.91824    45.012622      2204118          147  0.007193656    69.862055    1231.7493 
   27400    487.12025    44.421241      2204118          147  0.007193656    66.386974    1219.2852 
   27500    498.38733    47.207486      2204118          147  0.007193656    82.512377    1262.0772 
   27600    513.08194    49.916442      2204118          147  0.007193656    97.086806    1311.4302 
   27700     516.7595     47.43092      2204118          147  0.007193656    77.973572    1301.0209 
   27800    489.84252    44.181369      2204118          147  0.007193656    65.050513    1224.3917 
   27900    478.90071    42.244086      2204118          147  0.007193656     55.85805    1189.3026 
   28000    496.35878    44.196289      2204118          147  0.007193656    65.281322     1240.045 
   28100    527.19685    44.011088      2204118          147  0.007193656    53.620307    1301.3704 
   28200      512.395    41.281421      2204118          147  0.007193656    39.631517    1252.3491 
   28300    473.56814    39.196003      2204118          147  0.007193656    38.385465    1159.2091 
   28400    477.17945    39.833847      2204118          147  0.007193656    41.393738    1170.7645 
   28500    513.23877    44.372588      2204118          147  0.007193656    61.573633    1276.2883 
   28600    531.86704    46.206552      2204118          147  0.007193656    68.438694     1327.242 
   28700    497.86103    43.684617      2204118          147  0.007193656    62.749879     1241.069 
   28800    474.82868     39.02426      2204118          147  0.007193656    37.715187    1161.5222 
   28900    486.97044    38.669172      2204118          147  0.007193656    31.966885    1184.5106 
   29000    514.04921     41.84122      2204118          147  0.007193656    46.109982    1262.7427 
   29100    521.39705    42.966148      2204118          147  0.007193656    51.946553    1285.9699 
   29200    497.07642    40.629264      2204118          147  0.007193656    43.551441    1220.0136 
   29300    476.15378    39.359997      2204118          147  0.007193656    41.867795     1168.811 
   29400    494.15904    40.329878      2204118          147  0.007193656     42.36118    1211.9186 
   29500    515.85713    44.109851      2204118          147  0.007193656    62.187009    1283.0987 
   29600    520.43262    42.735195      2204118          147  0.007193656    49.724907    1281.4657 
   29700    487.49526    40.879561      2204118          147  0.007193656    47.593284    1201.3791 
   29800    474.23791       40.606      2204118          147  0.007193656    49.565175     1171.974 
   29900    498.72918    43.601382      2204118          147  0.007193656    61.889199    1242.2631 
   30000    527.27197    46.936633      2204118          147  0.007193656     76.55201    1324.4799 
   30100    523.13295    43.222551      2204118          147  0.007193656    51.445455    1289.5772 
   30200    473.77385    40.223088      2204118          147  0.007193656    48.253953    1169.5645 
   30300    465.71442    40.350167      2204118          147  0.007193656    53.506088    1155.7418 
   30400    521.60737    40.739131      2204118          147  0.007193656    37.231364    1271.7525 
   30500      536.718    41.602697      2204118          147  0.007193656    38.475583      1308.76 
   30600    482.12617    41.732409      2204118          147  0.007193656    59.141443    1200.2199 
   30700    468.96696    40.043346      2204118          147  0.007193656    51.869109    1161.8028 
   30800    510.27246    39.931556      2204118          147  0.007193656    36.960801    1244.6549 
   30900    528.53592    41.472589      2204118          147  0.007193656    42.289948    1293.2093 
   31000    497.55651    40.778531      2204118          147  0.007193656    48.915732    1226.5142 
   31100    477.63218     38.57058      2204118          147  0.007193656    40.656973    1171.0992 
   31200    494.68076     38.05079      2204118          147  0.007193656    31.208668    1202.0009 
   31300    512.04664    41.290703      2204118          147  0.007193656    49.343504    1261.2366 
   31400    519.20121     39.93584      2204118          147  0.007193656    35.772265    1264.5986 
   31500    485.29481    40.576695      2204118          147  0.007193656    51.441357    1200.0192 
   31600    475.91784    42.655746      2204118          147  0.007193656    68.431525    1194.8163 
   31700    513.86833    44.433011      2204118          147  0.007193656    66.426969    1282.6316 
   31800    525.55782    46.218965      2204118          147  0.007193656     74.20465    1318.0756 
   31900    486.84298    48.161296      2204118          147  0.007193656     102.4354    1254.6775 
   32000    492.73393     43.34172      2204118          147  0.007193656     65.32884    1231.5134 
   32100    505.65106    40.957541      2204118          147  0.007193656    44.892878    1241.6492 
   32200    502.02181    40.433087      2204118          147  0.007193656    43.409639    1231.5764 
   32300    492.64735    40.595222      2204118          147  0.007193656    48.357846    1214.3375 
   32400     494.0946    42.304471      2204118          147  0.007193656    60.703539    1230.1084 
   32500    511.74218    42.353917      2204118          147  0.007193656    54.077355    1265.2499 
   32600    504.03786    43.307794      2204118          147  0.007193656    63.498531    1256.4368 
   32700     495.8903     42.14229      2204118          147  0.007193656    57.806604    1231.4615 
   32800    496.33488    41.429073      2204118          147  0.007193656    53.342866      1228.05 
   32900    504.63908    40.088054      2204118          147  0.007193656    40.884133    1235.2453 
   33000    495.51551    41.975369      2204118          147  0.007193656    58.514514    1231.2824 
   33100    502.94582    41.165129      2204118          147  0.007193656    49.371316     1239.725 
   33200    495.62749    43.512889      2204118          147  0.007193656    68.978285    1242.0112 
   33300    499.92053    44.534588      2204118          147  0.007193656    75.097762    1258.2913 
   33400    512.24986    42.804322      2204118          147  0.007193656    58.673373    1271.0475 
   33500    503.14207    39.996265      2204118          147  0.007193656    41.825444    1232.6436 
   33600    481.73357    39.727314      2204118          147  0.007193656    48.430117    1188.5794 
   33700    497.83145     38.17346      2204118          147  0.007193656     31.64619    1209.8953 
   33800    509.08642     39.89333      2204118          147  0.007193656    41.155055     1246.042 
   33900    509.61583    38.778432      2204118          147  0.007193656    32.316142    1238.4561 
   34000    488.48654    39.088309      2204118          147  0.007193656    41.661712    1197.7937 
   34100    488.35293    40.215042      2204118          147  0.007193656    49.148443    1204.9642 
   34200    508.13566    42.169418      2204118          147  0.007193656    55.297762    1257.9345 
   34300    514.15288    43.521189      2204118          147  0.007193656    62.270978    1279.1491 
   34400    501.05988    41.693481      2204118          147  0.007193656    52.720168    1238.6102 
   34500     484.2704    40.716274      2204118          147  0.007193656    51.318811    1197.4722 
   34600    492.45792    41.669821      2204118          147  0.007193656    55.156519    1220.6878 
   34700    513.77214    43.180901      2204118          147  0.007193656    58.366364    1274.3433 
   34800    513.28912    43.094865      2204118          147  0.007193656    57.774269    1272.6081 
   34900    488.60867    42.751015      2204118          147  0.007193656    64.397046    1220.8181 
   35000    488.51299    41.599102      2204118          147  0.007193656    56.698112    1212.8927 
   35100    507.64356     41.56972      2204118          147  0.007193656    51.437119    1252.9092 
   35200    515.35961    40.077223      2204118          147  0.007193656    39.064083    1258.7982 
   35300    492.75651    39.123531      2204118          147  0.007193656    41.184873    1207.4228 
   35400    483.49204    38.769759      2204118          147  0.007193656    42.556752    1186.8679 
   35500    505.62154    38.130974      2204118          147  0.007193656    30.156097    1226.8425 
   35600    514.43816    38.541746      2204118          147  0.007193656    30.133326    1247.6866 
   35700    498.14086    37.884753      2204118          147  0.007193656     30.37707    1209.3585 
   35800      483.174    37.972838      2204118          147  0.007193656    35.169047    1178.7275 
   35900    492.69631    40.457801      2204118          147  0.007193656    48.998622    1215.0941 
   36000     519.1232    42.203234      2204118          147  0.007193656     52.19456    1280.8362 
   36100    519.30471    40.096479      2204118          147  0.007193656    37.108649    1266.1799 
   36200    481.95438    38.270072      2204118          147  0.007193656    37.632465    1178.3044 
   36300    472.54591    38.977266      2204118          147  0.007193656    46.941793     1165.346 
   36400     513.4479     40.04082      2204118          147  0.007193656    40.553625    1255.7632 
   36500    523.02468    43.030028      2204118          147  0.007193656    59.599474     1297.475 
   36600    495.51358    42.210952      2204118          147  0.007193656    62.434507    1235.1978 
   36700     475.7004    41.442313      2204118          147  0.007193656    62.629086    1188.4993 
   36800     496.1382    42.519027      2204118          147  0.007193656    62.304116    1236.5457 
   36900     518.9345    46.074472      2204118          147  0.007193656     81.08572    1309.2808 
   37000    518.05739    43.779281      2204118          147  0.007193656    65.013475    1291.1326 
   37100    482.47446    40.527544      2204118          147  0.007193656    54.683673    1196.5865 
   37200    472.87114    39.808739      2204118          147  0.007193656    53.616121    1172.7901 
   37300    504.17092    42.369383      2204118          147  0.007193656    61.698335    1254.9515 
   37400    535.06541    41.963175      2204118          147  0.007193656    46.625288    1312.9984 
   37500    500.32272    41.124926      2204118          147  0.007193656     52.17712    1236.3225 
   37600    465.19429    41.240235      2204118          147  0.007193656     64.90533      1165.91 
   37700    488.61315    42.891026      2204118          147  0.007193656    68.257407     1224.689 
   37800    534.19709    44.767176      2204118          147  0.007193656    65.571163    1329.8892 
   37900    522.01567    43.195725      2204118          147  0.007193656    58.693516     1294.181 
   38000    475.47969    38.856008      2204118          147  0.007193656     43.73103    1169.0789 
   38100    458.90701    40.500908      2204118          147  0.007193656    62.409959    1148.5342 
   38200    519.00119    41.213055      2204118          147  0.007193656    43.863331    1272.2162 
   38300    529.07093    47.914531      2204118          147  0.007193656    87.881273    1340.0669 
   38400    503.08109    47.410476      2204118          147  0.007193656    92.206332    1282.8801 
   38500    481.13139    43.743096      2204118          147  0.007193656    72.965752    1211.6898 
   38600    485.44944    42.683395      2204118          147  0.007193656    63.567688    1212.5115 
   38700    502.63941    45.606141      2204118          147  0.007193656    78.558033    1268.1865 
   38800    521.08112     46.10941      2204118          147  0.007193656    75.159721    1308.4353 
   38900    499.92928    46.599325      2204118          147  0.007193656    86.543901    1269.7581 
   39000    486.31638    44.449802      2204118          147  0.007193656    74.946812    1225.9425 
   39100    488.20101    46.088783      2204118          147  0.007193656    86.813769    1242.2699 
   39200      518.757    45.237965      2204118          147  0.007193656    69.698006     1297.473 
   39300    509.89389    45.243606      2204118          147  0.007193656    72.518373    1279.3165 
   39400    479.83735    45.974993      2204118          147  0.007193656    88.238483    1223.8998 
   39500    492.32327    45.338783      2204118          147  0.007193656    78.888409     1244.101 
   39600    518.32806    45.684133      2204118          147  0.007193656    73.030693    1299.7905 
   39700    514.70567    43.826894      2204118          147  0.007193656    61.151098    1279.3375 
   39800    481.77515    42.558277      2204118          147  0.007193656    63.618458    1203.8661 
   39900    477.57186    43.410124      2204118          147  0.007193656    71.518136    1201.8176 
   40000     515.3074    44.324055      2204118          147  0.007193656    65.236628    1284.8472 
   40100    530.30678    42.947159      2204118          147  0.007193656    50.227873    1305.3384 
   40200    484.56682    42.221944      2204118          147  0.007193656    61.850323    1208.7052 
   40300    469.30331    41.675374      2204118          147  0.007193656    63.334838    1174.0646 
   40400    503.16842    44.534697      2204118          147  0.007193656    73.195059    1264.0755 
   40500    539.13676     45.00783      2204118          147  0.007193656    63.793286    1339.8023 
   40600    503.54671    43.879651      2204118          147  0.007193656    68.075216     1259.851 
   40700    463.72089    42.952019      2204118          147  0.007193656    75.414305    1172.9318 
   40800    490.96647    42.523254      2204118          147  0.007193656    62.186275    1224.1876 
   40900    527.79486    45.388224      2204118          147  0.007193656    69.543897    1318.7093 
   41000    512.45328    48.264495      2204118          147  0.007193656    96.560967    1309.4165 
   41100    499.61452    42.788047      2204118          147  0.007193656     61.16311    1243.6324 
   41200    482.96308     39.74655      2204118          147  0.007193656    45.341383    1188.4006 
   41300    485.30701    41.626481      2204118          147  0.007193656    58.424175    1207.0309 
   41400    515.23474    43.752079      2204118          147  0.007193656     62.16997    1281.6086 
   41500    514.14952    46.533341      2204118          147  0.007193656    81.398368    1298.2685 
   41600     488.6083    48.007749      2204118          147  0.007193656    99.933407    1256.3535 
   41700    490.15884    47.299393      2204118          147  0.007193656    93.227574    1253.3175 
   41800    506.08498    47.725084      2204118          147  0.007193656    90.571322    1288.3546 
   41900    513.44635    47.135911      2204118          147  0.007193656    83.630258    1298.8362 
   42000    494.95605    47.006456      2204118          147  0.007193656     89.51893    1260.9627 
   42100    483.12379    48.034385      2204118          147  0.007193656    101.69656    1245.1362 
   42200    509.99356    47.298315      2204118          147  0.007193656    87.134182    1294.1682 
   42300    518.56681    47.023946      2204118          147  0.007193656    82.906884    1310.2317 
   42400    497.12614    44.281945      2204118          147  0.007193656    70.569312    1247.1492 
   42500    471.40484    45.293139      2204118          147  0.007193656    88.549459    1204.2531 
   42600    506.00577    42.824814      2204118          147  0.007193656    57.750974    1255.3468 
   42700    521.12172    43.526384      2204118          147  0.007193656     57.93601    1291.3077 
   42800    499.33268      43.2194      2204118          147  0.007193656    63.363639    1245.1658 
   42900    477.98556    43.493938      2204118          147  0.007193656    72.541981    1203.8206 
   43000    494.97733    44.979017      2204118          147  0.007193656    77.353485    1248.8476 
   43100       524.72    45.647935      2204118          147  0.007193656    71.340469    1313.2284 
   43200    505.51614     46.68894      2204118          147  0.007193656    85.666206    1282.1032 
   43300    485.54543    44.317167      2204118          147  0.007193656    75.190091    1224.3611 
   43400    491.40338    42.937227      2204118          147  0.007193656    64.084168    1227.1196 
   43500    508.97065    43.256317      2204118          147  0.007193656     61.47106    1266.0841 
   43600    508.28891    44.183624      2204118          147  0.007193656    68.979952    1271.9794 
   43700    501.24995    42.058933      2204118          147  0.007193656     55.55952    1241.8994 
   43800    487.63251    41.510414      2204118          147  0.007193656    56.168583    1210.2792 
   43900    489.41535    43.730841      2204118          147  0.007193656    72.335912    1230.6662 
   44000    518.95638    43.448094      2204118          147  0.007193656    59.801369    1288.0482 
   44100    511.38671    43.419142      2204118          147  0.007193656    62.499258    1272.8305 
   44200    485.57879    42.242706      2204118          147  0.007193656    62.868259    1212.1183 
   44300    484.81418    42.415992      2204118          147  0.007193656    64.430062    1211.8704 
   44400    514.30822     42.17812      2204118          147  0.007193656      51.6895    1268.9353 
   44500    511.49931    44.145524      2204118          147  0.007193656     67.06718    1277.6649 
   44600    491.16634    44.397167      2204118          147  0.007193656    76.243937    1238.7183 
   44700    492.66887    42.299447      2204118          147  0.007193656     60.08826    1226.1188 
   44800    504.12157     41.82997      2204118          147  0.007193656    53.218411    1246.3548 
   44900    510.10984    40.837204      2204118          147  0.007193656    44.082873    1251.3921 
   45000    493.42754    40.899919      2204118          147  0.007193656    50.128834     1217.955 
   45100    482.60013    43.315204      2204118          147  0.007193656    71.569821      1213.77 
   45200    510.51386    43.385878      2204118          147  0.007193656    61.423232    1269.6887 
   45300     518.6078    43.524776      2204118          147  0.007193656    59.007275    1286.4291 
   45400    487.57317    44.960816      2204118          147  0.007193656      80.4681    1234.4383 
   45500    480.26644    45.793365      2204118          147  0.007193656    89.268554    1225.9455 
   45600    513.08624    45.048776      2204118          147  0.007193656    72.501475    1286.8551 
   45700    524.23794     42.94292      2204118          147  0.007193656    53.812037    1294.5591 
   45800    484.90645    41.924329      2204118          147  0.007193656    60.848986    1208.5077 
   45900    474.96815    41.001721      2204118          147  0.007193656    57.158073    1181.2952 
   46000    503.31843    43.714475      2204118          147  0.007193656    66.926241    1258.1618 
   46100    532.17581    45.061689      2204118          147  0.007193656    66.644539    1326.1787 
   46200    510.28343    42.057288      2204118          147  0.007193656    52.679989       1260.4 
   46300    472.58821    38.398977      2204118          147  0.007193656    39.896704    1158.4011 
   46400    473.97797    39.400363      2204118          147  0.007193656    47.427308    1169.2209 
   46500     520.7571    42.269233      2204118          147  0.007193656    52.344954    1284.8537 
   46600    535.85995    42.475285      2204118          147  0.007193656    48.679021    1316.9326 
   46700     487.1908    40.180229      2204118          147  0.007193656    49.770867    1202.8361 
   46800    466.85638    37.431056      2204118          147  0.007193656     37.35703    1142.2955 
   46900    496.41873    39.001154      2204118          147  0.007193656    39.215434     1214.121 
   47000    534.06923    40.886854      2204118          147  0.007193656    39.997813    1304.0132 
   47100    508.78846     40.96397      2204118          147  0.007193656     49.56307    1253.7449 
   47200    471.90922    39.459924      2204118          147  0.007193656    51.011478    1167.9089 
   47300    480.05545    40.969197      2204118          147  0.007193656    59.125419     1195.303 
   47400    528.94165    41.771178      2204118          147  0.007193656    47.137122    1299.0167 
   47500    523.74273     41.95519      2204118          147  0.007193656    49.795407    1289.3704 
   47600    473.45803    42.272032      2204118          147  0.007193656    70.006453    1190.5695 
   47700     482.5498    40.339165      2204118          147  0.007193656    52.241838    1194.3229 
   47800    516.27112    42.097261      2204118          147  0.007193656    53.383702    1275.2752 
   47900    522.94396    41.991842      2204118          147  0.007193656    50.333225    1288.0177 
   48000    491.28849    39.731429      2204118          147  0.007193656    45.298459     1208.062 
   48100    474.73413     38.25837      2204118          147  0.007193656    39.634371    1163.2176 
   48200    490.91371    41.709933      2204118          147  0.007193656    57.665299    1219.5418 
   48300    520.10774     47.31932      2204118          147  0.007193656    87.272889    1318.2447 
   48400    530.07778    46.435806      2204118          147  0.007193656    76.329748    1330.8983 
   48500    487.02919    44.036988      2204118          147  0.007193656    74.624392    1227.3071 
   48600    472.64782    40.425252      2204118          147  0.007193656    53.611365    1172.2568 
   48700    493.87065    41.838475      2204118          147  0.007193656    57.226645    1226.1015 
   48800    525.99173    43.997834      2204118          147  0.007193656    62.254352    1307.1522 
   48900    515.93837    43.681197      2204118          147  0.007193656    64.464449    1285.5684 
   49000     485.5826    40.235411      2204118          147  0.007193656    50.576836    1199.8359 
   49100    476.76165    39.180379      2204118          147  0.007193656    46.690615    1175.0725 
   49200    507.40993    39.497822      2204118          147  0.007193656    37.994544    1238.9137 
   49300    518.16178    42.191882      2204118          147  0.007193656    53.851983    1280.2182 
   49400    499.83384    42.669826      2204118          147  0.007193656    63.936536    1246.9249 
   49500    493.30185    39.393669      2204118          147  0.007193656    42.148073    1209.6767 
   49600    488.55801    40.029671      2204118          147  0.007193656    48.567414    1204.8685 
   49700     500.5842    41.576162      2204118          147  0.007193656    54.285625    1239.0499 
   49800    509.52367    44.113688      2204118          147  0.007193656    68.322286    1274.2442 
   49900    512.42546    43.019682      2204118          147  0.007193656    58.140085    1270.9298 
   50000    493.65569    41.120317      2204118          147  0.007193656    49.956421    1218.3225 
   50100    478.14183    42.123694      2204118          147  0.007193656    61.692585    1193.3411 
   50200    495.85619    45.926482      2204118          147  0.007193656    83.008833     1256.583 
   50300    532.05388    46.421247      2204118          147  0.007193656    74.455059    1333.7006 
   50400    516.65643    42.695342      2204118          147  0.007193656    54.247453    1277.0509 
   50500    473.06308    38.019318      2204118          147  0.007193656    36.570914    1156.1992 
   50600     465.0683    38.865393      2204118          147  0.007193656    46.195139    1146.9017 
   50700    517.61061     42.15277      2204118          147  0.007193656    51.461972    1276.5237 
   50800    543.48131    44.108322      2204118          147  0.007193656    56.321375    1342.6129 
   50900    489.62041    43.088949      2204118          147  0.007193656    67.416059    1226.2316 
   51000    463.03498    40.954119      2204118          147  0.007193656    61.077023    1156.9712 
   51100     497.0104    41.679595      2204118          147  0.007193656    54.104702    1230.4106 
   51200    528.83127    45.273212      2204118          147  0.007193656    68.878255    1320.4966 
   51300    516.17704    44.794732      2204118          147  0.007193656    69.939182     1291.608 
   51400    481.50164    41.296283      2204118          147  0.007193656    56.833575    1196.4339 
   51500    471.34086    41.500341      2204118          147  0.007193656    62.326902    1177.8791 
   51600    509.09265    43.950552      2204118          147  0.007193656    67.608646    1272.5104 
   51700    539.95554    42.907898      2204118          147  0.007193656    49.012515    1326.9594 
   51800    492.29652    41.718969      2204118          147  0.007193656    56.760463    1221.9097 
   51900    455.63499    42.988646      2204118          147  0.007193656    78.400768    1156.7809 
   52000    501.59086    44.396296      2204118          147  0.007193656    71.569509    1258.7163 
   52100     548.0117    45.832526      2204118          147  0.007193656     65.42941    1362.4433 
   52200    503.55522    44.696039      2204118          147  0.007193656    72.979279    1264.7752 
   52300    461.42105    41.499469      2204118          147  0.007193656     65.32358    1157.3979 
   52400    485.46921    40.456657      2204118          147  0.007193656    50.133288    1199.1239 
   52500    528.43121    42.930203      2204118          147  0.007193656    53.362561    1304.0341 
   52600    522.99245    43.154833      2204118          147  0.007193656    57.103772     1294.903 
   52700    483.87247    39.768034      2204118          147  0.007193656    46.347996    1191.5595 
   52800    471.59372    38.265756      2204118          147  0.007193656    39.835984    1155.9866 
   52900    498.48271    41.854506      2204118          147  0.007193656    56.500736    1236.2913 
   53000    532.35195    44.490235      2204118          147  0.007193656    63.263071    1323.2141 
   53100    513.17783    42.810126      2204118          147  0.007193656    57.537721    1272.1081 
   53200    475.83965    39.355909      2204118          147  0.007193656    45.865705    1172.0655 
   53300    477.60866    38.805663      2204118          147  0.007193656    41.589473    1171.9761 
   53400    515.05552    40.617986      2204118          147  0.007193656    41.076725    1260.0912 
   53500     525.9267    42.128294      2204118          147  0.007193656    46.889807    1291.6337 
   53600    487.27047    43.325836      2204118          147  0.007193656    67.719072    1220.9729 
   53700    475.97159    43.887248      2204118          147  0.007193656     74.36462    1200.8766 
   53800    505.46754    46.329568      2204118          147  0.007193656    80.966861    1277.2888 
   53900    527.14578    47.764274      2204118          147  0.007193656    82.967747     1330.597 
   54000    499.97628    47.498604      2204118          147  0.007193656    90.625053    1273.9505 
   54100    480.41848    45.335362      2204118          147  0.007193656    82.717343    1219.7541 
   54200    500.43488    42.658268      2204118          147  0.007193656    57.355002    1241.7659 
   54300    510.61684    42.991747      2204118          147  0.007193656    57.584112    1266.0932 
   54400    502.93282     41.97589      2204118          147  0.007193656     52.75638    1243.0793 
   54500    482.23514    43.431006      2204118          147  0.007193656    70.336442    1211.6728 
   54600    492.31629     45.66478      2204118          147  0.007193656    82.339837    1247.5359 
   54700    521.36399    46.746732      2204118          147  0.007193656    80.060702    1314.0058 
   54800    516.78389    44.987783      2204118          147  0.007193656    69.355702    1292.4608 
   54900    481.86325    42.570521      2204118          147  0.007193656    63.665968    1204.1222 
   55000    472.11344    43.584778      2204118          147  0.007193656    74.281867    1191.6626 
   55100    507.91671    46.748045      2204118          147  0.007193656     84.68651    1286.8051 
   55200     539.6713    45.965704      2204118          147  0.007193656    67.021288    1344.2954 
   55300    500.71034    43.284939      2204118          147  0.007193656     61.93543    1246.9982 
   55400    465.45392    39.887753      2204118          147  0.007193656      49.8443    1151.4635 
   55500    479.18298     42.00625      2204118          147  0.007193656    60.874751    1194.9874 
   55600     530.8849    45.156812      2204118          147  0.007193656      65.3372     1321.816 
   55700    522.56543    48.195608      2204118          147  0.007193656    91.158554    1327.9472 
   55800    491.79729    43.698892      2204118          147  0.007193656    69.121206    1233.0889 
   55900    470.37079    42.534828      2204118          147  0.007193656     69.85572     1183.112 
   56000    502.22174    41.727931      2204118          147  0.007193656    53.425127    1242.0651 
   56100    523.62586    43.372792      2204118          147  0.007193656    58.294301    1297.5927 
   56200     500.3331    44.697672      2204118          147  0.007193656    76.458352    1260.6283 
   56300    487.64109    42.246065      2204118          147  0.007193656    62.323583    1216.4546 
   56400    491.45287    42.273361      2204118          147  0.007193656    60.759012    1223.9116 
   56500    506.06386     44.31527      2204118          147  0.007193656    70.084175    1267.8175 
   56600    512.16623    45.144477      2204118          147  0.007193656    73.729434    1285.9056 
   56700    499.56304    44.381756      2204118          147  0.007193656    73.191465    1255.5389 
   56800     494.7461    41.403125      2204118          147  0.007193656    53.171243    1224.1181 
   56900    487.44696    42.959649      2204118          147  0.007193656     67.27774    1220.9493 
   57000    499.51844    46.028989      2204118          147  0.007193656    85.421289    1267.6631 
   57100     522.0724     45.56547      2204118          147  0.007193656    73.500365    1309.1221 
   57200    502.53891    44.828847      2204118          147  0.007193656    74.772773    1264.1634 
   57300    471.90528    46.715831      2204118          147  0.007193656    99.550798    1216.4388 
   57400    500.43619    46.346097      2204118          147  0.007193656     86.75352    1271.1675 
   57500    532.46778    44.828785      2204118          147  0.007193656    65.284456    1325.5096 
   57600    501.47047    43.404278      2204118          147  0.007193656    67.300598    1254.1624 
   57700    471.53574    41.048223      2204118          147  0.007193656     61.09574    1177.1092 
   57800    486.76587    41.873657      2204118          147  0.007193656     62.02489    1214.0844 
   57900    525.29461    44.018664      2204118          147  0.007193656    63.565767    1306.8137 
   58000    513.13878    47.259499      2204118          147  0.007193656     92.18742    1306.6654 
   58100    495.60107    42.739545      2204118          147  0.007193656    64.077718    1237.0481 
   58200    476.25002    42.441119      2204118          147  0.007193656    68.848411    1196.0194 
   58300    502.65338     41.89848      2204118          147  0.007193656    54.665468     1244.327 
   58400    511.69179     45.42529      2204118          147  0.007193656    76.499931    1287.5532 
   58500    504.44101    46.713451      2204118          147  0.007193656     87.75138    1281.6438 
   58600    500.14099    44.353444      2204118          147  0.007193656    71.450126    1255.1654 
   58700    487.46484    45.061582      2204118          147  0.007193656    81.143201     1234.857 
   58800     497.5987    46.297824      2204118          147  0.007193656    85.883851    1263.5821 
   58900    515.50537     46.44247      2204118          147  0.007193656    79.293741    1299.3729 
   59000    501.98921    46.941054      2204118          147  0.007193656    87.162026    1275.2516 
   59100    493.63675     44.46203      2204118          147  0.007193656    71.802106    1240.1234 
   59200    492.24563     43.71928      2204118          147  0.007193656    66.527919    1231.5568 
   59300    497.81928    45.907686      2204118          147  0.007193656    79.622965    1257.8433 
   59400    507.90123    48.627398      2204118          147  0.007193656    95.148039      1297.23 
   59500     505.8862    50.012566      2204118          147  0.007193656    106.43317     1303.746 
   59600    503.70612    47.572249      2204118          147  0.007193656    90.239393    1282.3925 
   59700    494.68187    45.091842      2204118          147  0.007193656     75.88802    1246.6828 
   59800    489.20424    45.450147      2204118          147  0.007193656    82.062268    1239.8929 
   59900    508.03181    44.915622      2204118          147  0.007193656    73.317599    1275.7086 
   60000    515.61262     42.25354      2204118          147  0.007193656    51.936708    1272.2697 
   60100    488.42262      41.3728      2204118          147  0.007193656    55.263515    1211.2442 
   60200    466.34397    46.054586      2204118          147  0.007193656    97.557194    1201.2829 
   60300    518.84914    46.215622      2204118          147  0.007193656    79.023907    1307.0169 
   60400    538.49097    46.496571      2204118          147  0.007193656    74.508483    1348.9891 
   60500    488.50952     45.40985      2204118          147  0.007193656    85.523188    1241.7095 
   60600    474.80506    40.062317      2204118          147  0.007193656     51.87261    1175.6237 
   60700    495.77064    39.129658      2204118          147  0.007193656     38.77643    1212.1481 
   60800    513.00745    42.391774      2204118          147  0.007193656    57.128046    1271.2952 
   60900    514.56108    42.714583      2204118          147  0.007193656    58.583032    1276.4272 
   61000    490.56145    42.936769      2204118          147  0.007193656    68.781225     1229.824 
   61100    485.69293    42.469813      2204118          147  0.007193656    66.943711    1216.4639 
   61200    503.20251    43.411133      2204118          147  0.007193656    67.741503    1258.7027 
   61300    515.81073    44.416173      2204118          147  0.007193656     71.21705    1292.0189 
   61400    509.51384    41.263966      2204118          147  0.007193656    50.047277    1255.9459 
   61500    479.69029    40.197976      2204118          147  0.007193656    52.429979    1187.7433 
   61600    483.60625    41.013817      2204118          147  0.007193656    56.123635    1200.7051 
   61700    510.77666    44.947659      2204118          147  0.007193656    75.169611     1284.057 
   61800    528.62053    44.486536      2204118          147  0.007193656    64.953661    1316.0733 
   61900    493.91614    42.704314      2204118          147  0.007193656    64.104568    1233.0871 
   62000    471.02638    41.638368      2204118          147  0.007193656    64.333051     1179.141 
   62100    496.91742    42.526225      2204118          147  0.007193656    61.686121     1237.772 
   62200    527.28778     44.46673      2204118          147  0.007193656    65.594669      1313.56 
   62300    509.84497     44.14419      2204118          147  0.007193656    69.746943    1276.4292 
   62400     480.7433    41.710444      2204118          147  0.007193656     62.57695    1200.3825 
   62500    486.69546    40.040211      2204118          147  0.007193656     48.65794    1200.5508 
   62600    511.04592    40.756143      2204118          147  0.007193656    44.839925    1254.3646 
   62700    511.34959    42.844722      2204118          147  0.007193656    59.368873    1269.6122 
   62800    495.72458    42.130986      2204118          147  0.007193656    57.820728    1231.0834 
   62900      482.686    43.656678      2204118          147  0.007193656    72.918178    1215.3216 
   63000    504.46044    44.546172      2204118          147  0.007193656    71.384353    1265.3228 
   63100    518.83092      45.0858      2204118          147  0.007193656    70.433496    1298.3834 
   63200      503.252    43.452989      2204118          147  0.007193656    64.285974    1255.3643 
   63300    483.54704    41.358798      2204118          147  0.007193656    56.112064    1200.5534 
   63400    487.30522    41.835346      2204118          147  0.007193656    58.111682    1211.4477 
   63500     508.4951    44.713599      2204118          147  0.007193656    71.771602    1275.2591 
   63600    522.67242    44.748261      2204118          147  0.007193656    67.749994    1304.7918 
   63700    500.34962    41.678498      2204118          147  0.007193656    53.955737    1238.1648 
   63800    474.43548    40.164096      2204118          147  0.007193656    52.981172    1175.8576 
   63900    493.49946    39.916257      2204118          147  0.007193656    44.529827    1212.5262 
   64000    514.66097    43.715364      2204118          147  0.007193656    64.729551    1282.8102 
   64100    516.46106    44.666133      2204118          147  0.007193656    70.368777    1292.7098 
   64200     491.6854    43.630816      2204118          147  0.007193656    71.297831    1235.0007 
   64300    484.83583    41.593864      2204118          147  0.007193656    58.273084    1205.7647 
   64400    495.59409    43.549382      2204118          147  0.007193656    69.613682    1242.5675 
   64500    521.88352     43.07167      2204118          147  0.007193656    57.770788    1292.9455 
   64600    510.68179    40.685991      2204118          147  0.007193656    45.268704    1253.9316 
   64700    474.41635    40.279655      2204118          147  0.007193656     55.52824    1178.3594 
   64800    481.36806    41.925452      2204118          147  0.007193656    64.757061    1204.0413 
   64900    525.11978    43.593953      2204118          147  0.007193656    60.774816     1303.609 
   65000    518.11052    45.568084      2204118          147  0.007193656    77.271809    1303.5167 
   65100    485.43401    43.980802      2204118          147  0.007193656    76.264881    1225.1722 
   65200    477.54162    43.721366      2204118          147  0.007193656    76.706252    1206.9342 
   65300    507.16969     45.05516      2204118          147  0.007193656    76.091889    1276.4424 
   65400     530.9811    43.867892      2204118          147  0.007193656    58.611429     1315.318 
   65500     492.2933    43.480476      2204118          147  0.007193656    69.841007    1234.9827 
   65600    474.19142    41.860564      2204118          147  0.007193656    64.626085    1186.9249 
   65700    499.47034    42.408598      2204118          147  0.007193656    60.058941     1242.187 
   65800    525.58131    43.282804      2204118          147  0.007193656     56.73657    1300.6631 
   65900    504.03591    43.708136      2204118          147  0.007193656    66.739341     1259.673 
   66000    477.49763    43.480909      2204118          147  0.007193656    73.749808    1203.8736 
   66100    493.66399    43.105784      2204118          147  0.007193656    65.411533    1233.7973 
   66200    520.71478    43.657347      2204118          147  0.007193656    60.682447     1293.091 
   66300     511.1837    42.838036      2204118          147  0.007193656    58.223848    1268.0746 
   66400    480.80098    41.767385      2204118          147  0.007193656    61.272892    1199.2149 
   66500    486.12713    41.141204      2204118          147  0.007193656       55.507    1206.0548 
   66600    516.16736    41.659369      2204118          147  0.007193656    49.615776    1271.2617 
   66700    517.97019    41.619136      2204118          147  0.007193656    49.494964    1275.4077 
   66800     491.1043    39.177013      2204118          147  0.007193656    41.071799    1203.3994 
   66900    476.20303    38.665387      2204118          147  0.007193656    42.316926    1169.3767 
   67000    497.28598    41.192306      2204118          147  0.007193656    53.416097    1230.3743 
   67100    530.12209    41.718265      2204118          147  0.007193656    45.208179    1299.8816 
   67200    507.45381    41.464538      2204118          147  0.007193656    51.135126    1252.1581 
   67300    471.26772    41.107921      2204118          147  0.007193656    60.143488    1175.5226 
   67400    481.20499    43.378537      2204118          147  0.007193656    72.452983    1211.3512 
   67500    528.32598    45.337451      2204118          147  0.007193656    69.891511     1320.314 
   67600    528.77835    43.639228      2204118          147  0.007193656    57.353825    1308.8469 
   67700    476.18622    41.549279      2204118          147  0.007193656    62.192746    1189.2127 
   67800    477.98458    36.665676      2204118          147  0.007193656    26.458428    1157.7347 
   67900    502.39899    38.230574      2204118          147  0.007193656    30.081552     1219.141 
   68000    518.71436    41.392451      2204118          147  0.007193656    46.999347    1274.6734 
   68100    498.51064     44.46627      2204118          147  0.007193656    76.539231    1256.3959 
   68200     492.1526      42.6947      2204118          147  0.007193656    64.808884    1229.6175 
   68300    495.97318    42.833053      2204118          147  0.007193656    64.946585    1238.7977 
   68400    512.72397    41.094261      2204118          147  0.007193656    46.244134    1259.7403 
   68500    501.28202    40.515001      2204118          147  0.007193656    45.781165     1232.197 
   68600    480.49522    42.254409      2204118          147  0.007193656    65.401747    1202.6201 
   68700    500.60144    42.514609      2204118          147  0.007193656    58.866358    1243.6714 
   68800    517.08598    44.382794      2204118          147  0.007193656    66.400337    1290.2204 
   68900    510.14812     42.83625      2204118          147  0.007193656    57.419135    1264.8189 
   69000    484.28485    41.173669      2204118          147  0.007193656    54.479787    1200.6673 
   69100    479.93421    42.456834      2204118          147  0.007193656    65.449285    1201.3399 
   69200    516.68402    42.955147      2204118          147  0.007193656    55.764484    1278.6332 
   69300    520.28375    43.820349      2204118          147  0.007193656    60.597771    1291.9862 
   69400    486.30759    44.279931      2204118          147  0.007193656    76.064661    1227.0396 
   69500    485.04015    42.833284      2204118          147  0.007193656    66.038079    1214.0132 
   69600    507.62274     43.00029      2204118          147  0.007193656    59.496442    1260.9193 
   69700    513.10688    44.331512      2204118          147  0.007193656    67.851624    1282.2541 
   69800    503.55454    41.789501      2204118          147  0.007193656    52.964215    1244.7586 
   69900    486.61129     39.49328      2204118          147  0.007193656    42.386157    1194.0798 
   70000     486.4466    40.382696      2204118          147  0.007193656    48.593764    1199.8977 
   70100     506.4574    43.431803      2204118          147  0.007193656    62.949291     1261.614 
   70200    515.72794    45.943661      2204118          147  0.007193656    77.630595    1298.2365 
   70300      508.885    43.395336      2204118          147  0.007193656    61.119446    1265.5297 
   70400    482.94736     41.71943      2204118          147  0.007193656    57.706456    1200.7285 
   70500    478.04418    43.946006      2204118          147  0.007193656    75.485964    1206.9033 
   70600    515.26697    46.077323      2204118          147  0.007193656    77.353333    1296.8682 
   70700    525.63695    47.295098      2204118          147  0.007193656      82.4365    1326.4947 
   70800    494.74539    45.336946      2204118          147  0.007193656    79.834149    1250.7793 
   70900    479.23475    42.167199      2204118          147  0.007193656    64.044204    1198.2794 
   71000    500.48089    39.911838      2204118          147  0.007193656    41.685704    1226.2055 
   71100    513.32749    40.274938      2204118          147  0.007193656    40.308653    1255.2333 
   71200    494.81274    42.590601      2204118          147  0.007193656    63.870416     1234.975 
   71300    497.21866    41.289292      2204118          147  0.007193656    53.241317    1230.0401 
   71400    501.92803    41.451025      2204118          147  0.007193656    53.215025    1241.1598 
   71500    503.66624    40.809397      2204118          147  0.007193656    46.512995    1238.5717 
   71600    484.41245    45.025455      2204118          147  0.007193656    83.216458     1229.706 
   71700    502.47005    46.407354      2204118          147  0.007193656    85.800368     1275.028 
   71800    523.46625    45.610989      2204118          147  0.007193656    72.567736    1311.4884 
   71900    500.82072    44.369802      2204118          147  0.007193656    72.315263    1257.6393 
   72000    481.12394    42.001421      2204118          147  0.007193656    62.433846    1201.1403 
   72100    489.23222    42.318844      2204118          147  0.007193656     62.13478    1220.0316 
   72200    509.15099    45.874731      2204118          147  0.007193656    81.428187     1286.468 
   72300    526.63601    44.719644      2204118          147  0.007193656     66.44654    1312.8692 
   72400    495.20914    43.165531      2204118          147  0.007193656     67.57778    1239.6205 
   72500    482.27485    38.643266      2204118          147  0.007193656    39.259528    1180.6899 
   72600    486.94966    39.988732      2204118          147  0.007193656    46.963724    1199.4583 
   72700    509.18721    44.653081      2204118          147  0.007193656    72.158121    1277.2837 
   72800    522.36419    46.498541      2204118          147  0.007193656    80.136245    1316.4486 
   72900    497.78266    45.874301      2204118          147  0.007193656    84.774829    1262.9085 
   73000    486.11166    42.509284      2204118          147  0.007193656    65.156767    1215.6679 
   73100    496.07018    40.768653      2204118          147  0.007193656    49.687843    1223.7685 
   73200    509.09709    40.594957      2204118          147  0.007193656    44.450608    1249.3629 
   73300    502.45469    41.026263      2204118          147  0.007193656    49.762621    1238.9539 
   73400     485.1346    43.588631      2204118          147  0.007193656    74.612993    1222.8117 
   73500    506.52247    42.409723      2204118          147  0.007193656    58.032694    1256.8514 
   73600    509.40468    43.433262      2204118          147  0.007193656    65.253039    1270.8933 
   73700     501.0918    42.068208      2204118          147  0.007193656    58.668612    1244.6342 
   73800    493.97123    39.741826      2204118          147  0.007193656    43.773999    1212.8869 
   73900     484.7514    42.129549      2204118          147  0.007193656    64.144208     1211.436 
   74000    508.17421    43.012847      2204118          147  0.007193656    60.965649    1263.6937 
   74100    512.97788    45.505133      2204118          147  0.007193656     77.77001    1291.8672 
   74200    505.67547    43.659146      2204118          147  0.007193656    67.261705    1264.0758 
   74300    493.80801     39.69362      2204118          147  0.007193656    42.952973    1211.6796 
   74400    480.43998    40.149999      2204118          147  0.007193656    51.581747    1188.6694 
   74500    500.06214    41.884397      2204118          147  0.007193656    57.150795    1240.6794 
   74600    526.87752    41.026873      2204118          147  0.007193656    39.574757    1286.5691 
   74700    490.55477    43.745685      2204118          147  0.007193656    71.145056     1232.172 
   74800    479.90516    43.988715      2204118          147  0.007193656    75.521852    1211.3437 
   74900    506.34602    44.590251      2204118          147  0.007193656    69.857484    1268.2586 
   75000     517.4723    46.555281      2204118          147  0.007193656    79.765317    1304.4997 
   75100    499.85085    46.903846      2204118          147  0.007193656    88.822715    1271.8513 
   75200    491.58629    43.829762      2204118          147  0.007193656    69.474967    1232.9433 
   75300    493.31053    42.963592      2204118          147  0.007193656    63.665689    1231.2149 
   75400    506.30387    42.620865      2204118          147  0.007193656    57.409135    1255.7105 
   75500      503.389    43.979396      2204118          147  0.007193656    69.428325    1260.8309 
   75600    499.84966     44.24559      2204118          147  0.007193656    73.624776    1256.6506 
   75700    507.92669     40.84636      2204118          147  0.007193656    45.637263    1247.7794 
   75800     490.0727    41.133351      2204118          147  0.007193656    53.702475    1213.5885 
   75900    485.84946    43.148706      2204118          147  0.007193656    68.660513    1218.5511 
[...]
  381700    514.00537    43.061094      2204118          147  0.007193656    61.634721    1278.1637 
  381800    476.40155    42.085869      2204118          147  0.007193656    67.139106    1194.6687 
  381900    487.65913    41.681675      2204118          147  0.007193656    59.409603    1213.5833 
  382000    499.71185    45.051602      2204118          147  0.007193656    80.411086    1263.1107 
  382100    509.38504    44.106866      2204118          147  0.007193656     70.34317    1275.9369 
  382200    502.72006    42.769922      2204118          147  0.007193656    63.307886    1253.1272 
  382300    493.07488    42.082089      2204118          147  0.007193656     61.49285    1228.4843 
  382400    497.94658    41.875573      2204118          147  0.007193656    57.839042    1236.3607 
  382500    537.99282    44.052293      2204118          147  0.007193656    59.550425     1332.852 
  382600    522.31166    43.069647      2204118          147  0.007193656    57.512703    1293.7007 
  382700    487.79569    43.635839      2204118          147  0.007193656    73.680919    1228.1778 
  382800    496.90298    42.017201      2204118          147  0.007193656    57.352544    1233.4042 
  382900    506.94589    43.453277      2204118          147  0.007193656    63.822892    1263.6438 
  383000    512.65047    46.137836      2204118          147  0.007193656    81.321799    1294.6441 
  383100    511.33281    45.564766      2204118          147  0.007193656    77.463385    1287.6671 
  383200    485.87612    42.973487      2204118          147  0.007193656    68.255578    1218.2093 
  383300    488.41789    41.243476      2204118          147  0.007193656    55.530211    1211.4997 
  383400    509.78458    43.246766      2204118          147  0.007193656     63.18007    1269.7194 
  383500    525.05101    45.731134      2204118          147  0.007193656    76.710843    1319.3822 
  383600    490.34933    42.812095      2204118          147  0.007193656    67.841239     1228.382 
  383700    481.74244    40.973201      2204118          147  0.007193656    57.296362    1197.4666 
  383800    505.02902    41.741993      2204118          147  0.007193656    54.433076    1249.7172 
  383900    514.00043    42.986625      2204118          147  0.007193656    60.331096    1276.8484 
  384000     496.6891    41.965292      2204118          147  0.007193656    59.105313    1234.6508 
  384100    479.21841    38.715042      2204118          147  0.007193656    41.716268    1175.9127 
  384200    495.77833    38.466271      2204118          147  0.007193656    33.792495    1207.1824 
  384300    526.83601    42.912604      2204118          147  0.007193656    54.713302    1301.6094 
  384400    509.64664    42.443294      2204118          147  0.007193656     56.19593    1262.4088 
  384500    485.76245    43.219785      2204118          147  0.007193656    69.862657    1219.5473 
  384600    489.65136    45.265602      2204118          147  0.007193656    83.064607    1241.9534 
  384700    518.75393    46.360669      2204118          147  0.007193656    81.178633    1308.9463 
  384800       522.11     43.22302      2204118          147  0.007193656     57.92748    1293.6382 
  384900    506.71012      40.6905      2204118          147  0.007193656     45.60238    1244.8652 
  385000    491.19559    39.496113      2204118          147  0.007193656    42.436579    1204.9802 
  385100    485.14563    42.049848      2204118          147  0.007193656    63.152026    1211.3768 
  385200    513.17659     45.10582      2204118          147  0.007193656    74.709064    1289.2765 
  385300    516.27314    45.699226      2204118          147  0.007193656     77.58175     1299.478 
  385400    507.70562    42.701354      2204118          147  0.007193656    58.157569    1259.7765 
  385500    493.83949    42.741268      2204118          147  0.007193656    63.540013    1232.3411 
  385600     495.2631    42.934727      2204118          147  0.007193656    64.249882    1236.4204 
  385700    505.24269    45.589194      2204118          147  0.007193656     80.74228    1276.5321 
  385800    545.87988    45.097863      2204118          147  0.007193656    62.760297    1354.7287 
  385900    507.97183    42.915297      2204118          147  0.007193656    60.347443    1262.5965 
  386000     486.8241    45.038911      2204118          147  0.007193656     83.45872    1235.6561 
  386100    501.95175    45.792436      2204118          147  0.007193656    83.671866    1271.6728 
  386200    517.82143    45.018207      2204118          147  0.007193656    72.153597    1297.7143 
  386300    490.49941    45.586574      2204118          147  0.007193656    86.678905    1247.5748 
  386400    486.66334    42.015506      2204118          147  0.007193656    62.167617    1213.9845 
  386500    507.41646    41.110879      2204118          147  0.007193656    48.415859    1249.3505 
  386600     532.0577    43.415671      2204118          147  0.007193656    55.988949    1315.2435 
  386700    497.47576    44.684309      2204118          147  0.007193656     76.98224    1254.3896 
  386800    485.89993    43.816417      2204118          147  0.007193656    73.598007    1223.6081 
  386900    498.03483     44.17086      2204118          147  0.007193656    70.738297    1249.4688 
  387000    502.41066    46.486688      2204118          147  0.007193656    86.451828    1275.5389 
  387100    510.72896    44.264877      2204118          147  0.007193656    66.782728    1275.5572 
  387200    484.14957     43.99936      2204118          147  0.007193656    74.839372    1220.7067 
  387300    449.05471    42.025457      2204118          147  0.007193656    73.617319    1136.4235 
  387400      483.718     41.41775      2204118          147  0.007193656    57.308182    1202.1541 
  387500     495.3299    43.903703      2204118          147  0.007193656    72.097168    1244.4257 
  387600    517.21663    42.387541      2204118          147  0.007193656    53.204485    1277.3338 
  387700    504.99359    40.179339      2204118          147  0.007193656    41.273588    1236.4738 
  387800    476.13284     41.01089      2204118          147  0.007193656    57.347325     1184.241 
  387900    491.28365     42.66994      2204118          147  0.007193656    62.965295    1225.7173 
  388000    503.97518    44.690669      2204118          147  0.007193656      72.7526    1265.5425 
  388100    504.16363    44.323282      2204118          147  0.007193656    69.707726    1262.9436 
  388200    495.05947    44.589387      2204118          147  0.007193656    75.782829    1247.4714 
  388300    499.40045    41.488222      2204118          147  0.007193656    51.934634    1233.8972 
  388400    477.48211    42.766871      2204118          147  0.007193656    70.616104    1200.7032 
  388500     497.6089    43.003154      2204118          147  0.007193656    65.412834    1243.1353 
  388600    515.85837    45.333246      2204118          147  0.007193656    77.073397     1297.988 
  388700    505.07124    44.538705      2204118          147  0.007193656    75.967649    1271.3517 
  388800     493.2595    39.898612      2204118          147  0.007193656    46.421695    1213.8501 
  388900    488.21242    39.540499      2204118          147  0.007193656    46.029859    1201.5131 
  389000    498.04297    39.325411      2204118          147  0.007193656    40.101676    1218.8514 
  389100    495.98255    41.929908      2204118          147  0.007193656    58.764788     1232.638 
  389200    500.67125    45.224629      2204118          147  0.007193656    79.501417    1264.4717 
  389300    521.75452    47.047422      2204118          147  0.007193656    84.339044    1319.2084 
  389400    515.24385    46.469678      2204118          147  0.007193656    82.411182    1301.8714 
  389500    477.61632      44.7049      2204118          147  0.007193656    83.382251     1213.787 
  389600    496.82686     43.48492      2204118          147  0.007193656    69.178301    1245.0498 
  389700    519.79812    41.248464      2204118          147  0.007193656    46.290696    1276.5298 
  389800    499.34221    39.055431      2204118          147  0.007193656    37.871952    1219.6967 
  389900    480.88933    39.087999      2204118          147  0.007193656    43.722911    1181.8741 
  390000    487.57142    41.716071      2204118          147  0.007193656    59.031251    1212.9973 
  390100    498.00466    45.343818      2204118          147  0.007193656    80.135645    1258.7947 
  390200    505.97898    47.947591      2204118          147  0.007193656    95.499944    1293.0324 
  390300    513.68011    45.927939      2204118          147  0.007193656     78.46922    1294.2284 
  390400    477.86551    42.395711      2204118          147  0.007193656    66.969134    1197.9636 
  390500    485.95671    39.497324      2204118          147  0.007193656    43.984473    1194.1289 
  390600    503.96083    40.087251      2204118          147  0.007193656    42.462576    1235.2185 
  390700    498.68077    44.463877      2204118          147  0.007193656    76.290757      1256.55 
  390800    512.62929     45.82634      2204118          147  0.007193656    80.546636    1293.8188 
  390900     541.2295    45.632359      2204118          147  0.007193656    68.329088    1349.2911 
  391000    500.93215    44.556816      2204118          147  0.007193656    74.802193      1260.39 
  391100     486.3095    44.198242      2204118          147  0.007193656    77.601858    1228.5813 
  391200    506.42294    42.688663      2204118          147  0.007193656    59.351309    1257.9345 
  391300    512.58675    42.468509      2204118          147  0.007193656    55.031357    1268.2028 
  391400    479.14009    42.850765      2204118          147  0.007193656     68.94723    1202.9583 
  391500    476.58069    42.955372      2204118          147  0.007193656    70.165251    1198.1189 
  391600    510.47728    44.722695      2204118          147  0.007193656    71.562942    1279.7418 
  391700     511.1998      43.6579      2204118          147  0.007193656    64.504931    1274.3938 
  391800    495.66105    41.520571      2204118          147  0.007193656    55.367962    1228.4803 
  391900    488.76704    39.888956      2204118          147  0.007193656    46.491221    1203.2871 
  392000    500.92561     41.34728      2204118          147  0.007193656    53.232072    1238.8044 
  392100    533.31572    43.874834      2204118          147  0.007193656    59.580439    1321.8125 
  392200    506.89158    44.855501      2204118          147  0.007193656     76.43275    1276.1251 
  392300    495.81106    42.913514      2204118          147  0.007193656    66.469713    1239.9371 
  392400    499.35208    41.539864      2204118          147  0.007193656    55.429271    1237.2774 
  392500    501.08561    41.508739      2204118          147  0.007193656    54.570664    1240.5216 
  392600    501.20575    42.134677      2204118          147  0.007193656    58.277744    1244.5131 
  392700    496.08232    44.142339      2204118          147  0.007193656    73.719656     1247.829 
  392800    502.20787    46.069452      2204118          147  0.007193656    85.387101    1273.9942 
  392900    521.31372    44.296192      2204118          147  0.007193656    65.831689    1299.6578 
  393000     497.5754    41.619454      2204118          147  0.007193656    55.255371    1232.8985 
  393100    478.44519    41.822732      2204118          147  0.007193656    63.860645    1196.2271 
  393200    497.02395     42.91539      2204118          147  0.007193656    65.091396    1241.4294 
  393300    501.39133     45.34397      2204118          147  0.007193656      81.4541    1268.1286 
  393400    504.51548    45.622767      2204118          147  0.007193656    82.426463    1276.4951 
  393500    506.18299    43.110527      2204118          147  0.007193656    63.830615    1261.8459 
  393600    469.46731    39.876328      2204118          147  0.007193656    52.539086     1163.657 
  393700    464.32342    43.408388      2204118          147  0.007193656    79.668044    1178.6116 
  393800    490.78916    45.923992      2204118          147  0.007193656    88.382323     1249.964 
  393900    518.83691     43.80677      2204118          147  0.007193656    63.134772    1291.0989 
  394000    503.79692     42.23341      2204118          147  0.007193656    57.668026     1250.036 
  394100    483.03907    41.834127      2204118          147  0.007193656    62.751746    1205.9908 
  394200    501.68273    40.859023      2204118          147  0.007193656    49.049367    1236.4136 
  394300    522.77636    41.439403      2204118          147  0.007193656    45.789305    1283.0771 
  394400    506.18541    43.033282      2204118          147  0.007193656    62.685798    1260.7068 
  394500    478.56757    42.038375      2204118          147  0.007193656    64.026119    1196.6822 
  394600    492.67912    42.810062      2204118          147  0.007193656    63.786445    1229.8412 
  394700    515.50945    44.341347      2204118          147  0.007193656    66.071187      1286.16 
  394800    509.08232    43.812923      2204118          147  0.007193656    63.534391    1268.4117 
  394900    480.65699    44.277477      2204118          147  0.007193656    76.372233    1213.9735 
  395000    493.31908    44.745597      2204118          147  0.007193656     74.19055      1241.76 
  395100    529.88144    48.359566      2204118          147  0.007193656    87.165217    1341.2691 
  395200    504.74855    47.844357      2204118          147  0.007193656    91.796329    1286.4166 
  395300     484.0474    47.356343      2204118          147  0.007193656    96.168923    1241.7945 
  395400    502.94001    44.636307      2204118          147  0.007193656    70.496862    1260.8368 
  395500    521.37347     42.94426      2204118          147  0.007193656    52.628083    1286.5956 
  395600    488.06788     42.50879      2204118          147  0.007193656    62.162108    1217.3032 
  395700    471.87969    43.750257      2204118          147  0.007193656    78.322366    1195.1498 
  395800     514.1712    40.315561      2204118          147  0.007193656    38.281658    1255.2031 
  395900    505.37138    41.496376      2204118          147  0.007193656    50.886902    1246.9813 
  396000    488.96382    43.086178      2204118          147  0.007193656    68.842773    1226.1043 
  396100    506.57863    41.513625      2204118          147  0.007193656    51.099041    1250.0507 
  396200    540.85859    43.940513      2204118          147  0.007193656    57.088672    1337.1729 
  396300    518.64317    45.534975      2204118          147  0.007193656    76.566082    1304.0716 
  396400     490.5342    44.603713      2204118          147  0.007193656    79.635918    1240.6142 
  396500     497.3821    43.584682      2204118          147  0.007193656    70.030181    1247.2158 
  396600    510.22999    42.951333      2204118          147  0.007193656    61.013035    1268.6066 
  396700    503.84418    42.090164      2204118          147  0.007193656    56.298062    1248.7779 
  396800    467.38612    43.599418      2204118          147  0.007193656     80.08331    1186.2756 
  396900    490.07571    45.018377      2204118          147  0.007193656    82.359471    1242.2526 
  397000    514.91942     44.33178      2204118          147  0.007193656    69.789438    1288.4818 
  397100    512.44734    39.717188      2204118          147  0.007193656    37.096648    1249.9382 
  397200    486.89127    39.217968      2204118          147  0.007193656    42.955908    1195.3122 
  397300    488.87437    40.862624      2204118          147  0.007193656    54.223733    1211.2736 
  397400     501.3064    44.507341      2204118          147  0.007193656    76.336393    1262.8099 
  397500     506.0924     45.63883      2204118          147  0.007193656    82.895981    1280.6968 
  397600    507.77378    43.132756      2204118          147  0.007193656    64.584851    1266.3651 
  397700    499.42104    40.721748      2204118          147  0.007193656    50.861942    1232.8733 
  397800    490.52039     39.55946      2204118          147  0.007193656    46.109199    1207.0548 
  397900    492.79734    41.099604      2204118          147  0.007193656    57.116633    1223.4512 
  398000    527.75471    41.980542      2204118          147  0.007193656     51.44707    1300.5175 
  398100    517.79536    38.666388      2204118          147  0.007193656    30.941985     1256.441 
  398200    484.16603    39.407514      2204118          147  0.007193656    48.289077    1194.1954 
  398300    490.52582    41.140066      2204118          147  0.007193656    57.380414    1218.3389 
  398400    505.87181    44.852678      2204118          147  0.007193656    78.361267      1275.64 
  398500    511.47281    44.479275      2204118          147  0.007193656    72.755787    1283.2908 
  398600    503.95003     41.87828      2204118          147  0.007193656    55.444551    1248.1749 
  398700    493.01031    42.733693      2204118          147  0.007193656    65.372086    1232.2107 
  398800    502.73688    41.442947      2204118          147  0.007193656    51.773391    1241.6325 
  398900    502.24399    41.166512      2204118          147  0.007193656    49.969312    1238.6619 
  399000     485.4852    41.293806      2204118          147  0.007193656    57.009673    1206.0382 
  399100    479.60159    39.974505      2204118          147  0.007193656    49.400473    1184.5039 
  399200    504.35382    42.146093      2204118          147  0.007193656    56.723895      1250.41 
  399300    520.38134    42.700913      2204118          147  0.007193656      54.4957    1286.1151 
  399400    494.13256    43.899178      2204118          147  0.007193656    73.156475    1242.6512 
  399500    493.53058    40.881136      2204118          147  0.007193656    51.446389    1219.5164 
  399600    506.03759    39.702221      2204118          147  0.007193656    38.930956    1236.6021 
  399700    520.64218    41.910872      2204118          147  0.007193656    49.638402    1281.8751 
  399800    500.26451    43.338131      2204118          147  0.007193656     66.64474    1250.6524 
  399900    481.68321    43.224325      2204118          147  0.007193656    71.968346    1211.9984 
  400000     501.2172    43.424383      2204118          147  0.007193656    67.271321    1253.5337 
  400100    530.48253    41.303189      2204118          147  0.007193656    42.013592    1297.5401 
Loop time of 25.509 on 1 procs for 400000 steps with 795 atoms

Performance: 338.704 ns/day, 0.071 hours/ns, 15680.728 timesteps/s
96.3% CPU use with 1 MPI tasks x no OpenMP threads

MPI task timing breakdown:
Section |  min time  |  avg time  |  max time  |%varavg| %total
---------------------------------------------------------------
Pair    | 11.898     | 11.898     | 11.898     |   0.0 | 46.64
Neigh   | 3.7782     | 3.7782     | 3.7782     |   0.0 | 14.81
Comm    | 0.89549    | 0.89549    | 0.89549    |   0.0 |  3.51
Output  | 1.7912     | 1.7912     | 1.7912     |   0.0 |  7.02
Modify  | 6.4804     | 6.4804     | 6.4804     |   0.0 | 25.40
Other   |            | 0.6655     |            |       |  2.61

Nlocal:            795 ave         795 max         795 min
Histogram: 1 0 0 0 0 0 0 0 0 0
Nghost:            150 ave         150 max         150 min
Histogram: 1 0 0 0 0 0 0 0 0 0
Neighs:           1611 ave        1611 max        1611 min
Histogram: 1 0 0 0 0 0 0 0 0 0

Total # of neighbors = 1611
Ave neighs/atom = 2.0264151
Neighbor list builds = 11991
Dangerous builds = 14

write_data graphene_single_layer_LJ_795C_after_temp_500K.data
System init for write_data ...
  generated 0 of 0 mixed pair_coeff terms from geometric mixing rule
Total wall time: 0:00:25
