# System definition
read_data graphene_single_layer_x-45_y-45_795_C.data
Reading data file ...
  orthogonal box = (-51 -51 -51) to (96 96 51)
  1 by 1 by 1 MPI processor grid
  reading atoms ...
  795 atoms
  read_data CPU = 0.013 seconds
pair_style lj/cut 6
pair_coeff      1 1 0.066047 3.4

# Virtual force wall to keep the cylinder shape
#region myCylinder cylinder z 0. 0. 20.3 -22.079997 505.920003 units box
#fix wall all wall/region myCylinder lj93 1.0 1.0 2.5

# Minimization
timestep 0.25
thermo 100
thermo_style custom step temp press vol lx density pe etotal
dump 2 all custom 1000 graphene_single_layer_LJ_795C_after_temp_700K.lammpstrj id type x y z
min_style cg
minimize 1.0e-6 1.0e-6 100 1000
WARNING: Using 'neigh_modify every 1 delay 0 check yes' setting during minimization (../min.cpp:187)
  generated 0 of 0 mixed pair_coeff terms from geometric mixing rule
Neighbor list info ...
  update every 1 steps, delay 0 steps, check yes
  max neighbors/atom: 10000, page size: 100000
  master list distance cutoff = 6.4
  ghost atom cutoff = 6.4
  binsize = 3.2, bins = 46 46 32
  1 neighbor lists, perpetual/occasional/extra = 1 0 0
  (1) pair lj/cut, perpetual
      attributes: half, newton on
      pair build: half/bin/atomonly/newton
      stencil: half/bin/3d
      bin: standard
Per MPI rank memory allocation (min/avg/max) = 5.96 | 5.96 | 5.96 Mbytes
Step Temp Press Volume Lx Density PotEng TotEng 
       0            0    1335313.5      2204118          147  0.007193656     10699602     10699602 
     100            0     61841.43      2204118          147  0.007193656    488621.59    488621.59 
Loop time of 0.0598 on 1 procs for 100 steps with 795 atoms

100.0% CPU use with 1 MPI tasks x no OpenMP threads

Minimization stats:
  Stopping criterion = max iterations
  Energy initial, next-to-last, final = 
      10699602.3573369   495470.853828546   488621.590421788
  Force two-norm initial, final = 694694.42 29375.63
  Force max component initial, final = 79169.705 9280.0147
  Final line search alpha, max atom move = 3.8811533e-05 0.36017159
  Iterations, force evaluations = 100 117

MPI task timing breakdown:
Section |  min time  |  avg time  |  max time  |%varavg| %total
---------------------------------------------------------------
Pair    | 0.038128   | 0.038128   | 0.038128   |   0.0 | 63.76
Neigh   | 0.017667   | 0.017667   | 0.017667   |   0.0 | 29.54
Comm    | 0.0003846  | 0.0003846  | 0.0003846  |   0.0 |  0.64
Output  | 0.0001088  | 0.0001088  | 0.0001088  |   0.0 |  0.18
Modify  | 0          | 0          | 0          |   0.0 |  0.00
Other   |            | 0.003512   |            |       |  5.87

Nlocal:            795 ave         795 max         795 min
Histogram: 1 0 0 0 0 0 0 0 0 0
Nghost:              0 ave           0 max           0 min
Histogram: 1 0 0 0 0 0 0 0 0 0
Neighs:          13073 ave       13073 max       13073 min
Histogram: 1 0 0 0 0 0 0 0 0 0

Total # of neighbors = 13073
Ave neighs/atom = 16.444025
Neighbor list builds = 35
Dangerous builds = 0
#timestep 0.25
fix 1 all nvt temp 700.0 700.0 $(100.0*dt)
fix 1 all nvt temp 700.0 700.0 25
run 400000
  generated 0 of 0 mixed pair_coeff terms from geometric mixing rule
Per MPI rank memory allocation (min/avg/max) = 4.835 | 4.835 | 4.835 Mbytes
Step Temp Press Volume Lx Density PotEng TotEng 
     100            0     61841.43      2204118          147  0.007193656    488621.59    488621.59 
     200    24415.947    21837.458      2204118          147  0.007193656    160898.25    218685.01 
     300    7968.0858    10450.152      2204118          147  0.007193656    77332.653    96191.225 
     400    4141.0932    6645.7342      2204118          147  0.007193656    48946.225    58747.212 
     500    2663.3504     4763.879      2204118          147  0.007193656     34820.17     41123.69 
     600     1916.282    3645.0648      2204118          147  0.007193656    26411.557    30946.943 
     700    1487.1061    2905.3408      2204118          147  0.007193656    20853.352     24372.98 
     800    1217.1724    2379.9498      2204118          147  0.007193656    16910.414    19791.173 
     900    1037.9109    1988.2963      2204118          147  0.007193656     13976.17    16432.659 
    1000    915.80271    1685.0367      2204118          147  0.007193656    11708.098    13875.587 
    1100    831.59581    1443.5254      2204118          147  0.007193656    9905.0379    11873.228 
    1200    774.31035    1246.8539      2204118          147  0.007193656    8439.2616    10271.871 
    1300    737.29722    1083.5821      2204118          147  0.007193656    7224.1879    8969.1958 
    1400     715.0944    945.84022      2204118          147  0.007193656    6200.9345    7893.3936 
    1500    702.62773    828.22174      2204118          147  0.007193656    5329.2951    6992.2485 
    1600    695.82404    727.05039      2204118          147  0.007193656    4582.3275    6229.1782 
    1700    692.16069    639.68127      2204118          147  0.007193656    3940.3631    5578.5436 
    1800    690.63451    564.00532      2204118          147  0.007193656    3387.3831    5021.9514 
    1900    690.88986    498.14325      2204118          147  0.007193656    2908.8798    4544.0525 
    2000     691.6919    440.58363      2204118          147  0.007193656    2493.6247    4130.6956 
    2100    691.94129    390.19773      2204118          147  0.007193656    2133.2134    3770.8746 
    2200    691.98632    346.11217      2204118          147  0.007193656    1820.5788    3458.3466 
    2300    692.76935    307.56832      2204118          147  0.007193656    1549.5857    3189.2067 
    2400    694.12138    273.81443      2204118          147  0.007193656    1314.4256    2957.2465 
    2500    694.95542    244.20141      2204118          147  0.007193656    1110.4775    2755.2724 
    2600    695.11958    218.21377      2204118          147  0.007193656    933.97925    2579.1627 
    2700    695.45571    195.37028      2204118          147  0.007193656    780.42342    2426.4024 
    2800    696.32522    175.30838      2204118          147  0.007193656    647.08007     2295.117 
    2900    697.10384    157.65166      2204118          147  0.007193656    531.25865    2181.1383 
    3000    697.26461    142.07644      2204118          147  0.007193656    430.64463    2080.9048 
    3100    697.23529    128.35399      2204118          147  0.007193656    343.42176    1993.6126 
    3200    697.66465    116.28435      2204118          147  0.007193656    267.84726    1919.0543 
    3300    698.34579    105.66199      2204118          147  0.007193656    202.50308    1855.3222 
    3400    698.57748     96.28999      2204118          147  0.007193656    146.17814    1799.5456 
    3500    698.34636    88.039646      2204118          147  0.007193656    97.947209    1750.7677 
    3600     698.3392     80.82909      2204118          147  0.007193656    56.896545    1709.7001 
    3700    698.86388    74.559951      2204118          147  0.007193656    22.220099    1676.2654 
    3800    699.46739    69.044142      2204118          147  0.007193656   -7.2951628    1648.1785 
    3900     699.4004    64.162459      2204118          147  0.007193656   -32.134438    1623.1807 
    4000    698.90032    59.866964      2204118          147  0.007193656   -52.923069    1601.2085 
    4100    699.06138    56.136647      2204118          147  0.007193656   -69.994794    1584.5179 
    4200    699.81164    52.876797      2204118          147  0.007193656   -84.129289    1572.1591 
    4300    699.95564    49.977752      2204118          147  0.007193656   -95.925831    1560.7034 
    4400    699.33546    47.383119      2204118          147  0.007193656   -105.87653    1549.2849 
    4500    699.13606    45.106976      2204118          147  0.007193656   -114.16574    1540.5237 
    4600    699.81543    43.122547      2204118          147  0.007193656   -121.10935     1535.188 
    4700    700.29507    41.355268      2204118          147  0.007193656   -126.78448    1530.6481 
    4800    699.80977    39.756594      2204118          147  0.007193656   -131.21584    1525.0682 
    4900    699.23055     38.34853      2204118          147  0.007193656   -134.56147    1520.3516 
    5000    699.59248    37.158578      2204118          147  0.007193656   -136.96874     1518.801 
    5100     700.3424    36.135762      2204118          147  0.007193656   -138.59703    1518.9476 
    5200    700.26038    35.203226      2204118          147  0.007193656   -139.54015    1517.8103 
    5300    699.52082    34.359549      2204118          147  0.007193656   -139.82293    1515.7772 
    5400    699.40078    33.651304      2204118          147  0.007193656   -139.59349    1515.7225 
    5500    700.12749    33.075348      2204118          147  0.007193656   -138.97733    1518.0586 
    5600    700.49799    32.567791      2204118          147  0.007193656     -137.953    1519.9599 
    5700    699.90815    32.091586      2204118          147  0.007193656   -136.55067    1519.9662 
    5800    699.37401    31.681544      2204118          147  0.007193656   -134.92949    1520.3232 
    5900    699.81595    31.379917      2204118          147  0.007193656   -133.04769    1523.2509 
    6000    700.50568    31.140491      2204118          147  0.007193656   -130.99927    1526.9318 
    6100    700.29133    30.903573      2204118          147  0.007193656   -128.77197    1528.6518 
    6200    699.54495    30.678095      2204118          147  0.007193656   -126.46607    1529.1912 
    6300    699.53576     30.52423      2204118          147  0.007193656   -124.06503    1531.5704 
    6400    700.28882    30.438058      2204118          147  0.007193656   -121.60701    1535.8108 
    6500    700.53985     30.35463      2204118          147  0.007193656   -119.10096     1538.911 
    6600    699.86922    30.249302      2204118          147  0.007193656   -116.58217    1539.8425 
    6700    699.41411    30.177169      2204118          147  0.007193656   -114.03211    1541.3154 
    6800    699.94774    30.173691      2204118          147  0.007193656   -111.46179    1545.1487 
    6900     700.5751    30.190128      2204118          147  0.007193656   -108.92365    1549.1717 
    7000    700.23852    30.174629      2204118          147  0.007193656   -106.39303    1550.9057 
    7100    699.50838    30.152232      2204118          147  0.007193656    -103.8966    1551.6741 
    7200     699.6205    30.182135      2204118          147  0.007193656   -101.43459    1554.4014 
    7300    700.39055    30.254903      2204118          147  0.007193656   -98.989257    1558.6693 
    7400    700.52112     30.30211      2204118          147  0.007193656   -96.618268    1561.3493 
    7500    699.79222    30.314541      2204118          147  0.007193656   -94.278556    1561.9639 
    7600     699.4351    30.348663      2204118          147  0.007193656   -92.023596    1563.3737 
    7700    700.05313    30.436722      2204118          147  0.007193656   -89.800771    1567.0592 
    7800    700.60426    30.525804      2204118          147  0.007193656   -87.633805    1570.5306 
    7900    700.15574    30.567845      2204118          147  0.007193656   -85.556021    1571.5468 
    8000    699.46375    30.603666      2204118          147  0.007193656   -83.499425    1571.9656 
    8100    699.69697    30.687502      2204118          147  0.007193656   -81.506963    1574.5101 
    8200    700.46402     30.79944      2204118          147  0.007193656   -79.579089    1578.2534 
    8300    700.47014    30.876615      2204118          147  0.007193656   -77.692144    1580.1548 
    8400    699.70474    30.914413      2204118          147  0.007193656   -75.901591    1580.1338 
    8500    699.46117    30.981455      2204118          147  0.007193656   -74.109402    1581.3495 
    8600    700.15285    31.090608      2204118          147  0.007193656   -72.428484    1584.6675 
    8700    700.61285    31.187803      2204118          147  0.007193656   -70.797779    1587.3869 
    8800     700.0632    31.235491      2204118          147  0.007193656    -69.20258    1587.6812 
    8900    699.43056    31.277164      2204118          147  0.007193656   -67.674485     1587.712 
    9000    699.78158    31.363423      2204118          147  0.007193656   -66.242876    1589.9744 
    9100    700.52457    31.470587      2204118          147  0.007193656   -64.819994    1593.1558 
    9200     700.4038    31.532127      2204118          147  0.007193656   -63.489146    1594.2008 
    9300    699.62092    31.559703      2204118          147  0.007193656   -62.222516    1593.6145 
    9400    699.49609    31.618421      2204118          147  0.007193656   -61.015953    1594.5256 
    9500    700.24087    31.720312      2204118          147  0.007193656   -59.842744    1597.4616 
    9600    700.60328    31.807328      2204118          147  0.007193656   -58.648047     1599.514 
    9700    699.97597    31.837003      2204118          147  0.007193656   -57.652713    1599.0246 
    9800    699.40982    31.882732      2204118          147  0.007193656   -56.610899    1598.7265 
    9900    699.26153    32.178153      2204118          147  0.007193656   -54.044673    1600.9418 
   10000    700.23734    32.757153      2204118          147  0.007193656   -49.867373    1607.4286 
   10100     702.1659     32.86934      2204118          147  0.007193656   -49.766695    1612.0937 
   10200    695.54838    34.366864      2204118          147  0.007193656   -36.156795    1610.0415 
   10300    703.91702    33.306263      2204118          147  0.007193656   -47.621519    1618.3834 
   10400      697.161    34.972418      2204118          147  0.007193656   -33.355851    1616.6591 
   10500    697.15034    36.119034      2204118          147  0.007193656   -25.536928    1624.4528 
   10600    706.37326    35.775555      2204118          147  0.007193656   -32.457424    1639.3608 
   10700    697.70854    37.433325      2204118          147  0.007193656   -18.217163    1633.0937 
   10800    697.30489    37.755456      2204118          147  0.007193656   -17.253262    1633.1023 
   10900    695.67582    40.291919      2204118          147  0.007193656   0.96930653    1647.4692 
   11000    706.19922    41.205989      2204118          147  0.007193656    2.0774051    1673.4837 
   11100    700.61461    43.681051      2204118          147  0.007193656    20.520594    1678.7094 
   11200    697.74517    45.141398      2204118          147  0.007193656    30.465422     1681.863 
   11300    700.20784    46.627154      2204118          147  0.007193656    39.134737    1696.3609 
   11400    704.42241     47.04105      2204118          147  0.007193656    38.808779    1706.0098 
   11500    696.11542    48.065875      2204118          147  0.007193656    47.538372    1695.0787 
   11600    695.40111    48.783974      2204118          147  0.007193656    52.169299    1698.0191 
   11700    711.46369    46.803714      2204118          147  0.007193656    30.713746    1714.5798 
   11800    694.23074      49.0209      2204118          147  0.007193656    52.903307    1695.9831 
   11900    696.42449    48.585922      2204118          147  0.007193656    47.828079    1696.0999 
   12000    702.38183    49.790294      2204118          147  0.007193656    54.467045    1716.8385 
   12100    712.06533    48.317184      2204118          147  0.007193656     40.11636    1725.4064 
   12200    695.81582    47.840996      2204118          147  0.007193656    42.223457    1689.0547 
   12300    681.47816    49.414141      2204118          147  0.007193656    58.272689    1671.1701 
   12400    702.88798    50.900904      2204118          147  0.007193656     60.45497    1724.0244 
   12500    717.44155    53.038815      2204118          147  0.007193656    70.595695      1768.61 
   12600    707.87272      51.3669      2204118          147  0.007193656    61.171192    1736.5383 
   12700    687.83722    48.836336      2204118          147  0.007193656    49.361443    1677.3092 
   12800    682.93884    49.749667      2204118          147  0.007193656    56.753946    1673.1084 
   12900    701.26861    54.243197      2204118          147  0.007193656    82.482889    1742.2196 
   13000    731.54522    54.047834      2204118          147  0.007193656    68.662092    1800.0564 
   13100    702.24548    53.421049      2204118          147  0.007193656    73.307299     1735.356 
   13200    666.79622     53.53476      2204118          147  0.007193656     85.76002    1663.9088 
   13300    687.46794    55.470919      2204118          147  0.007193656    91.044407    1718.1182 
   13400    723.06753     60.97381      2204118          147  0.007193656    118.68707    1830.0167 
   13500    739.30719    57.255247      2204118          147  0.007193656    85.053601    1834.8186 
   13600     679.8965    53.399038      2204118          147  0.007193656    77.817783    1686.9718 
   13700    651.96444    52.687977      2204118          147  0.007193656    82.365425    1625.4109 
   13800    712.95761    52.407349      2204118          147  0.007193656    58.269158     1745.671 
   13900    744.05479    54.648247      2204118          147  0.007193656     63.90263    1824.9041 
   14000    696.22004    54.016936      2204118          147  0.007193656    76.688846    1724.4768 
   14100    668.28403    49.520015      2204118          147  0.007193656    53.373523    1635.0436 
   14200    685.09535    50.690428      2204118          147  0.007193656    56.302156    1677.7606 
   14300    728.55567    53.121698      2204118          147  0.007193656    58.291249      1782.61 
   14400    720.88641     53.87341      2204118          147  0.007193656    65.859891    1772.0273 
   14500    679.74061    52.415275      2204118          147  0.007193656    69.386014    1678.1711 
   14600    677.60196     51.38815      2204118          147  0.007193656    62.659441    1666.3828 
   14700    711.96124    52.492797      2204118          147  0.007193656    58.743378     1743.787 
   14800    726.06935    52.470789      2204118          147  0.007193656    53.288004    1771.7222 
   14900    694.61829    50.624754      2204118          147  0.007193656    50.119919    1694.1169 
   15000    668.93641    51.192065      2204118          147  0.007193656    62.901807    1646.1159 
   15100    695.44965    53.999771      2204118          147  0.007193656     72.95209    1718.9167 
   15200    733.56562    56.215921      2204118          147  0.007193656    74.485774    1810.6619 
   15300    703.85795    59.913944      2204118          147  0.007193656    112.47638    1778.3415 
   15400    684.01309    58.372196      2204118          147  0.007193656    106.34537    1725.2424 
   15500    684.18773    60.501109      2204118          147  0.007193656     121.9927     1741.303 
   15600     711.7962    61.275429      2204118          147  0.007193656    117.03837    1801.6914 
   15700    709.65558    63.684069      2204118          147  0.007193656    135.74212    1815.3288 
   15800    704.61162    59.934459      2204118          147  0.007193656    109.45197    1777.1008 
   15900     682.3146     59.89798      2204118          147  0.007193656    116.91744    1731.7945 
   16000    684.45956     64.17327      2204118          147  0.007193656    145.27118    1765.2249 
   16100    720.87321    68.654234      2204118          147  0.007193656    162.54518    1868.6814 
   16200    720.77355    72.873952      2204118          147  0.007193656    192.59302    1898.4933 
   16300     681.8434    74.406797      2204118          147  0.007193656    217.02824    1830.7901 
   16400    690.89648    69.261582      2204118          147  0.007193656     174.0992    1809.2875 
   16500    700.78977    71.812652      2204118          147  0.007193656     190.3866      1848.99 
   16600     723.8985    68.940552      2204118          147  0.007193656    160.06184    1873.3582 
   16700    671.91672    75.364819      2204118          147  0.007193656    227.86375    1818.1315 
   16800    713.95437    67.167226      2204118          147  0.007193656    150.29565    1840.0566 
   16900    700.89224    70.917867      2204118          147  0.007193656    183.15181    1841.9978 
   17000     687.8209    75.449913      2204118          147  0.007193656    220.94749    1848.8567 
   17100     722.6565    70.805237      2204118          147  0.007193656    171.52366    1881.8804 
   17200    700.93573    70.169131      2204118          147  0.007193656    173.26788    1832.2168 
   17300    672.24258    73.026459      2204118          147  0.007193656    204.63265    1795.6716 
   17400    692.62222     76.77877      2204118          147  0.007193656    225.40814    1864.6809 
   17500    726.36837    78.809577      2204118          147  0.007193656    229.46707     1948.609 
   17600      725.038    71.821433      2204118          147  0.007193656    177.55449    1893.5477 
   17700    663.47282    70.425956      2204118          147  0.007193656    189.35955    1759.6426 
   17800     665.5236    71.514263      2204118          147  0.007193656    196.50685    1771.6436 
   17900    739.43343    71.217064      2204118          147  0.007193656    167.25155    1917.3154 
   18000     728.4474    76.640309      2204118          147  0.007193656    212.08336    1936.1458 
   18100    681.47535    74.524059      2204118          147  0.007193656     211.7413    1824.6321 
   18200    667.01002    72.899155      2204118          147  0.007193656    204.36134    1783.0161 
   18300    711.54783    73.907043      2204118          147  0.007193656    196.13864    1880.2038 
   18400    741.46113    74.436122      2204118          147  0.007193656    189.53184    1944.3947 
   18500    685.64531    75.661159      2204118          147  0.007193656    219.08387    1841.8439 
   18600    683.01502    68.177027      2204118          147  0.007193656    163.31154    1779.8463 
   18700    678.86385    74.071448      2204118          147  0.007193656    209.03757    1815.7475 
   18800    715.46462    79.606448      2204118          147  0.007193656    236.69096    1930.0263 
   18900    738.65005    77.943155      2204118          147  0.007193656    215.82238    1964.0321 
   19000    690.88518    72.122753      2204118          147  0.007193656    188.72263    1823.8842 
   19100    650.71181    72.217083      2204118          147  0.007193656     204.7403    1744.8211 
   19200    706.40056    71.164783      2204118          147  0.007193656    177.72098    1849.6038 
   19300    736.83191    73.036932      2204118          147  0.007193656    181.64456    1925.5512 
   19400    709.38975    68.960238      2204118          147  0.007193656    161.09293    1840.0505 
   19500     667.3004    66.027081      2204118          147  0.007193656    154.65508    1733.9971 
   19600    685.73758    64.231581      2204118          147  0.007193656    134.00277    1756.9812 
   19700    705.73283    71.628776      2204118          147  0.007193656    182.25509    1852.5576 
   19800    744.68308    67.605598      2204118          147  0.007193656     136.9904    1899.4789 
   19900    678.61712    70.630336      2204118          147  0.007193656    183.28049    1789.4065 
   20000    665.92793    70.013788      2204118          147  0.007193656     183.3348    1759.4285 
   20100    711.70193     71.51996      2204118          147  0.007193656    179.69637    1864.1263 
   20200    737.01737    71.881674      2204118          147  0.007193656    174.99259    1919.3382 
   20300    706.29117     66.55847      2204118          147  0.007193656    145.44392    1817.0679 
   20400    642.05996    70.702871      2204118          147  0.007193656    199.14284    1718.7467 
   20500    694.89017    70.262618      2204118          147  0.007193656    176.52557     1821.166 
   20600    747.45745    74.683879      2204118          147  0.007193656    192.19067    1961.2454 
   20700    739.52729    67.916332      2204118          147  0.007193656    144.91206     1895.198 
   20800    655.10127    62.712705      2204118          147  0.007193656    136.40073    1686.8703 
   20900    630.61119    66.641685      2204118          147  0.007193656    174.30067     1666.808 
   21000    730.21051    70.586837      2204118          147  0.007193656    166.70803    1894.9434 
   21100    781.87933    71.520388      2204118          147  0.007193656    155.64294    2006.1662 
   21200    692.42889    65.116423      2204118          147  0.007193656    142.05384    1780.8691 
   21300    629.27272    58.105499      2204118          147  0.007193656    113.30031    1602.6398 
   21400    661.67927    63.108057      2204118          147  0.007193656    139.15688     1705.195 
   21500    762.61042    71.138186      2204118          147  0.007193656    161.71676     1966.635 
   21600    761.12249    72.174179      2204118          147  0.007193656    169.21018    1970.6069 
   21700    660.58654    67.106641      2204118          147  0.007193656    167.40579    1730.8577 
   21800     645.0929    60.211614      2204118          147  0.007193656    121.78432    1648.5664 
   21900    703.81114     62.94204      2204118          147  0.007193656    121.48399    1787.2383 
   22000    749.33092    68.667325      2204118          147  0.007193656    146.97015     1920.459 
   22100    714.43516    68.949082      2204118          147  0.007193656     161.9525    1852.8513 
   22200    670.91716    63.311317      2204118          147  0.007193656    137.58214    1725.4842 
   22300    676.57282    59.097955      2204118          147  0.007193656    105.85601    1707.1437 
   22400    707.40378    61.619523      2204118          147  0.007193656     115.0766    1789.3338 
   22500    729.51927    62.033504      2204118          147  0.007193656    111.07088    1837.6702 
   22600    689.77114    63.296296      2204118          147  0.007193656    136.19629    1768.7212 
   22700    682.58499    58.979496      2204118          147  0.007193656    106.46678    1721.9838 
   22800     696.2009    58.732731      2204118          147  0.007193656    100.50049    1748.2432 
   22900    718.99456    57.517627      2204118          147  0.007193656    83.103385    1784.7932 
   23000    695.25437     59.70533      2204118          147  0.007193656    107.82148    1753.3239 
   23100    687.71157    59.863289      2204118          147  0.007193656    111.27796    1738.9284 
   23200    701.04264    61.313057      2204118          147  0.007193656     117.4985    1776.7004 
   23300    715.26364    60.847335      2204118          147  0.007193656    109.73647    1802.5961 
   23400    707.19014    57.127763      2204118          147  0.007193656    85.659998    1759.4116 
   23500    673.36146    57.377445      2204118          147  0.007193656    99.991339    1693.6785 
   23600     686.6732    59.083862      2204118          147  0.007193656    107.95964    1733.1525 
   23700    739.14143    57.191053      2204118          147  0.007193656    75.339728    1824.7125 
   23800    712.87154    56.158122      2204118          147  0.007193656    76.584693    1763.7828 
   23900    660.19951    57.154842      2204118          147  0.007193656    102.17123    1664.7071 
   24000    681.58109    58.424375      2204118          147  0.007193656     103.7028    1716.8438 
   24100    740.57199    58.848277      2204118          147  0.007193656    85.270173    1838.0287 
   24200    726.25158    57.658523      2204118          147  0.007193656    81.490499     1800.356 
   24300    663.46579    56.306431      2204118          147  0.007193656    94.492311    1664.7587 
   24400    676.18692    53.220475      2204118          147  0.007193656    67.782234    1668.1565 
   24500    718.14525     56.73093      2204118          147  0.007193656    79.372578    1779.0523 
   24600    730.11617    59.066668      2204118          147  0.007193656    91.806708    1819.8188 
   24700    690.95748     58.65438      2204118          147  0.007193656    102.94974    1738.2825 
   24800    672.03232    56.800895      2204118          147  0.007193656    96.412046    1686.9534 
   24900    703.61996    55.105088      2204118          147  0.007193656    72.631689    1737.9335 
   25000    719.61726    56.907998      2204118          147  0.007193656    80.167752    1783.3314 
   25100    704.07932    56.467589      2204118          147  0.007193656    81.592485    1747.9815 
   25200    682.19935    55.525647      2204118          147  0.007193656    81.778168    1696.3825 
   25300    687.23906    57.096391      2204118          147  0.007193656    90.858641    1717.3908 
   25400    715.37821    60.375026      2204118          147  0.007193656    105.33227    1798.4631 
   25500    726.98192    59.320309      2204118          147  0.007193656    94.019279    1814.6133 
   25600    692.03503    55.977285      2204118          147  0.007193656     83.21503    1721.0981 
   25700    669.35185    53.337478      2204118          147  0.007193656    72.737622    1656.9349 
   25800     693.1773    54.571511      2204118          147  0.007193656    74.449397    1715.0359 
   25900    733.02272    55.749627      2204118          147  0.007193656    69.742983    1804.6342 
   26000     711.9311    55.612128      2204118          147  0.007193656    76.809582    1761.7819 
   26100    673.03057    53.221248      2204118          147  0.007193656    72.409222    1665.3132 
   26200     676.6512    54.098944      2204118          147  0.007193656     77.49896    1678.9721 
   26300    723.89942      55.6359      2204118          147  0.007193656    72.945403    1786.2439 
   26400     734.5029    53.166304      2204118          147  0.007193656    51.402772    1789.7972 
   26500    675.66922    52.495938      2204118          147  0.007193656    68.178164    1667.3272 
   26600    661.10402    52.851377      2204118          147  0.007193656    75.657255    1640.3339 
   26700    713.02628    55.021242      2204118          147  0.007193656    72.901999    1760.4663 
   26800      742.197    57.178885      2204118          147  0.007193656    79.270517     1835.875 
   26900    704.56174    53.126272      2204118          147  0.007193656    62.788442    1730.3192 
   27000    656.02989     50.91853      2204118          147  0.007193656    63.633565    1616.3009 
   27100    675.03799    53.994296      2204118          147  0.007193656    78.408654    1676.0637 
   27200    734.27159    59.961049      2204118          147  0.007193656    100.08429    1837.9313 
   27300    739.16444    61.151762      2204118          147  0.007193656    107.28073    1856.7079 
   27400    689.30441     54.13308      2204118          147  0.007193656    72.945435    1704.3657 
   27500    645.56011    53.502025      2204118          147  0.007193656    83.973224    1611.8611 
   27600     691.9939    56.622133      2204118          147  0.007193656    90.243188    1728.0289 
   27700    759.41824    58.333549      2204118          147  0.007193656    78.161799    1875.5249 
   27800    712.25066    58.851153      2204118          147  0.007193656    98.832142    1784.5608 
   27900    655.93063    55.530174      2204118          147  0.007193656    95.041962    1647.4744 
   28000    678.13538     53.87741      2204118          147  0.007193656    75.279807    1680.2657 
   28100    725.87856    58.462664      2204118          147  0.007193656    92.673026    1810.6557 
   28200    725.24179    61.970758      2204118          147  0.007193656    119.29806    1835.7736 
   28300    695.91318    57.403406      2204118          147  0.007193656    95.997025    1743.0587 
   28400    665.17459    56.296397      2204118          147  0.007193656    100.13209    1674.4428 
   28500    700.48491    54.384159      2204118          147  0.007193656    73.282724    1731.1646 
   28600    725.39764    56.454832      2204118          147  0.007193656    80.431497    1797.2759 
   28700    709.21634     54.61809      2204118          147  0.007193656    72.199005    1750.7461 
   28800    671.33926    54.342705      2204118          147  0.007193656    82.959644    1671.8607 
   28900    678.45394    57.648127      2204118          147  0.007193656    103.96645    1709.7063 
   29000    729.98411    60.189206      2204118          147  0.007193656    103.23435    1830.9339 
   29100    726.23042    62.160581      2204118          147  0.007193656    119.58724    1838.4026 
   29200    694.11345    55.457475      2204118          147  0.007193656    80.663503    1723.4656 
   29300     651.2825    57.647951      2204118          147  0.007193656    112.32462    1653.7561 
   29400    697.13507    60.943648      2204118          147  0.007193656    119.88344    1769.8371 
   29500     749.5424     64.23423      2204118          147  0.007193656    126.10592    1900.0953 
   29600    726.17889      60.3126      2204118          147  0.007193656    106.73859     1825.432 
   29700    663.42565    53.742201      2204118          147  0.007193656    81.606395    1651.7778 
   29800    656.14449    52.410128      2204118          147  0.007193656    74.709007    1627.6476 
   29900    717.78222    56.360068      2204118          147  0.007193656    82.140104    1780.9606 
   30000     756.0982    57.818061      2204118          147  0.007193656    78.421102    1867.9265 
   30100     686.8466    59.380405      2204118          147  0.007193656    115.02201    1740.6253 
   30200    661.37351    54.444484      2204118          147  0.007193656    86.253197    1651.5677 
   30300    682.18398    58.496128      2204118          147  0.007193656    108.51888    1723.0868 
   30400    733.81024    63.211261      2204118          147  0.007193656    125.06639    1861.8214 
   30500    733.21158    61.613701      2204118          147  0.007193656    113.73189    1849.0701 
   30600    677.68784    56.082622      2204118          147  0.007193656    92.432946    1696.3596 
   30700    654.91924    54.987753      2204118          147  0.007193656    92.434792    1642.4735 
   30800    702.14989    58.554687      2204118          147  0.007193656    101.69682    1763.5193 
   30900    753.55549    60.718181      2204118          147  0.007193656    98.875528    1882.3629 
   31000    716.17462    59.441458      2204118          147  0.007193656    103.32412    1798.3398 
   31100    656.70447    56.462786      2204118          147  0.007193656    103.04525    1657.3092 
   31200    670.81898    55.768175      2204118          147  0.007193656    92.244615    1679.9143 
   31300    724.85525    61.556733      2204118          147  0.007193656    115.06266    1830.6234 
   31400    743.85518    64.730141      2204118          147  0.007193656    132.15447    1892.6835 
   31500    703.51441    57.791346      2204118          147  0.007193656    95.165129    1760.2171 
   31600    652.75622    54.305652      2204118          147  0.007193656    88.414358    1633.3337 
   31700    679.49596    55.211616      2204118          147  0.007193656    86.215533    1694.4215 
   31800    733.04373    60.091609      2204118          147  0.007193656    103.76024    1838.7011 
   31900    732.15443    59.967759      2204118          147  0.007193656    102.06511    1834.9012 
   32000    668.63725    60.083377      2204118          147  0.007193656    125.17614    1707.6822 
   32100    667.04842    58.463081      2204118          147  0.007193656    112.87176    1691.6174 
   32200    710.29612    62.381165      2204118          147  0.007193656    125.92384    1807.0266 
   32300    736.17652    65.496166      2204118          147  0.007193656    139.41077    1881.7662 
   32400    709.58473    60.708183      2204118          147  0.007193656    113.07758    1792.4966 
   32500    662.23175    57.253699      2204118          147  0.007193656    104.92824     1672.274 
   32600    667.60161    59.553794      2204118          147  0.007193656    121.25818    1701.3131 
   32700    736.20218    60.346066      2204118          147  0.007193656     102.5194    1844.9356 
   32800    722.63633    64.683032      2204118          147  0.007193656    140.59941    1850.9085 
   32900    688.76584    58.437629      2204118          147  0.007193656    105.01754    1735.1632 
   33000    657.89962    58.735609      2204118          147  0.007193656    117.93574    1675.0283 
   33100     704.2905    59.591112      2204118          147  0.007193656    107.31689    1774.2057 
   33200    746.52267     59.97288      2204118          147  0.007193656    94.621994    1861.4644 
   33300    685.89031     63.43609      2204118          147  0.007193656    141.91671    1765.2566 
   33400    668.50774    60.495411      2204118          147  0.007193656    125.87545    1708.0749 
   33500    705.33697    60.526929      2204118          147  0.007193656    115.01068    1784.3763 
   33600    737.96815    59.440078      2204118          147  0.007193656    96.296415    1842.8923 
   33700    693.00128    59.086739      2204118          147  0.007193656    110.46532    1750.6352 
   33800    662.19732    59.146835      2204118          147  0.007193656    123.12798    1690.3922 
   33900    710.71855    56.090051      2204118          147  0.007193656    82.600953    1764.7034 
   34000    720.44446    61.228965      2204118          147  0.007193656    117.92837    1823.0498 
   34100    708.06094     59.05086      2204118          147  0.007193656    105.51605    1781.3286 
   34200    670.45435    58.242912      2204118          147  0.007193656    111.43019    1698.2369 
   34300    687.99709    58.901707      2204118          147  0.007193656    109.02965    1737.3558 
   34400    725.59837    62.270514      2204118          147  0.007193656      120.478    1837.7975 
   34500    725.77813    60.796593      2204118          147  0.007193656    108.55138    1826.2963 
   34600    680.51177    58.516648      2204118          147  0.007193656    107.70301    1718.3132 
   34700    667.76507    58.496433      2204118          147  0.007193656    112.45777    1692.8996 
   34800    705.35727    61.667788      2204118          147  0.007193656    122.58982    1792.0034 
   34900    740.12033      63.2118      2204118          147  0.007193656    121.45247     1873.142 
   35000    710.45166    60.141901      2204118          147  0.007193656    108.91801    1790.3888 
   35100    651.62844    62.062645      2204118          147  0.007193656    144.32642    1686.5766 
   35200    693.51614     61.25915      2204118          147  0.007193656    124.27435    1765.6628 
   35300    751.76359    59.194614      2204118          147  0.007193656    90.104373    1869.3508 
   35400    698.15981    59.456592      2204118          147  0.007193656    111.87297    1764.2519 
   35500    653.93238    57.672911      2204118          147  0.007193656     113.7109     1661.414 
   35600    695.92927    56.905409      2204118          147  0.007193656    92.066781    1739.1666 
   35700    728.58904    62.918103      2204118          147  0.007193656     124.1626    1848.5603 
   35800    722.99804    61.845551      2204118          147  0.007193656    116.26969    1827.4348 
   35900    664.40328    64.788239      2204118          147  0.007193656     159.6061    1732.0913 
   36000    696.67467    57.399549      2204118          147  0.007193656    91.993193    1740.8572 
   36100    707.62872    59.801683      2204118          147  0.007193656    105.43502    1780.2246 
   36200    700.94515    63.576542      2204118          147  0.007193656    135.43949    1794.4107 
   36300    707.48644    61.904502      2204118          147  0.007193656    119.58918     1794.042 
   36400    691.30548    64.023511      2204118          147  0.007193656    140.74021    1776.8966 
   36500    695.63568    64.926427      2204118          147  0.007193656    145.18614     1791.591 
   36600    710.57421    63.449019      2204118          147  0.007193656     128.2661     1810.027 
   36700    704.70646    61.994162      2204118          147  0.007193656    119.36385    1787.2371 
   36800    692.61506    60.668699      2204118          147  0.007193656    114.50431    1753.7601 
   36900    684.24331    62.488543      2204118          147  0.007193656     131.9902    1751.4321 
   37000    707.03343    63.410984      2204118          147  0.007193656    131.97332     1805.354 
   37100    722.90611    61.885453      2204118          147  0.007193656    116.64841     1827.596 
   37200    685.21363    63.457987      2204118          147  0.007193656     143.4752    1765.2136 
   37300    693.24284    58.988367      2204118          147  0.007193656    106.99579    1747.7374 
   37400     700.7634    59.898749      2204118          147  0.007193656    111.59058    1770.1316 
   37500     712.4755    59.341443      2204118          147  0.007193656    103.26685    1789.5276 
   37600     694.8126    60.203394      2204118          147  0.007193656    116.53565    1760.9925 
   37700    688.24274    60.304771      2204118          147  0.007193656     119.6017    1748.5093 
   37800    710.04454    59.467902      2204118          147  0.007193656    106.07404    1786.5813 
   37900    718.23639     57.58734      2204118          147  0.007193656    89.755251    1789.6507 
   38000    690.83906    57.198286      2204118          147  0.007193656    97.148105    1732.2006 
   38100    676.28974    58.325843      2204118          147  0.007193656    110.43137     1711.049 
   38200    702.00704    60.289103      2204118          147  0.007193656    114.34934    1775.8337 
   38300     727.6968    61.866795      2204118          147  0.007193656    116.26168    1838.5477 
   38400     709.5748     59.19773      2204118          147  0.007193656    102.49708    1781.8926 
   38500    671.97486    57.517991      2204118          147  0.007193656     103.3325    1693.7379 
   38600    677.00222    59.792237      2204118          147  0.007193656    117.60118    1719.9051 
   38700    721.75304    63.448755      2204118          147  0.007193656    127.62695    1835.8455 
   38800    728.02788     65.11443      2204118          147  0.007193656    136.76012    1859.8297 
   38900    685.51217    63.239136      2204118          147  0.007193656    137.36779    1759.8128 
   39000    667.58319    62.054563      2204118          147  0.007193656    136.22171     1716.233 
   39100    711.32573     60.17029      2204118          147  0.007193656    108.80665    1792.3462 
   39200     736.0308    57.517232      2204118          147  0.007193656    81.336705    1823.3473 
   39300    670.79702    63.211562      2204118          147  0.007193656    149.37427     1736.992 
   39400     691.7527    56.970131      2204118          147  0.007193656    96.083177     1733.298 
   39500     713.5798    55.468152      2204118          147  0.007193656    78.281764    1767.1562 
   39600    702.30227    56.311178      2204118          147  0.007193656    87.865434    1750.0486 
   39700    684.94101    57.874558      2204118          147  0.007193656    104.01409    1725.1073 
   39800    694.52104    61.161412      2204118          147  0.007193656    124.50536    1768.2722 
   39900    729.30319    58.972118      2204118          147  0.007193656    94.913404    1821.0013 
   40000    703.76973    58.561743      2204118          147  0.007193656    101.52849    1767.1848 
   40100    679.24926    55.568506      2204118          147  0.007193656     88.73542    1696.3576 
   40200    682.68977    56.032658      2204118          147  0.007193656    91.955842    1707.7208 
   40300    720.21125    55.783376      2204118          147  0.007193656    76.505998    1781.0755 
   40400     707.4204    60.165584      2204118          147  0.007193656    113.56554    1787.8621 
   40500    696.47378    58.908734      2204118          147  0.007193656     107.3546    1755.7431 
   40600    694.29796    57.879925      2204118          147  0.007193656    100.91486    1744.1537 
   40700    700.18444    57.832871      2204118          147  0.007193656    97.989445    1755.1602 
   40800    694.81826    61.258393      2204118          147  0.007193656    125.51037    1769.9806 
   40900    717.03923    58.074139      2204118          147  0.007193656    93.782357    1790.8444 
   41000    701.82796    56.720983      2204118          147  0.007193656    90.145383     1751.206 
   41100    685.74766    54.624491      2204118          147  0.007193656      79.9351    1702.9374 
   41200    682.38571    57.811545      2204118          147  0.007193656    104.75612    1719.8015 
   41300    720.42363    57.948198      2204118          147  0.007193656    91.515025    1796.5871 
   41400     711.6657    60.296017      2204118          147  0.007193656    112.89934    1797.2435 
   41500    691.06685     57.40516      2204118          147  0.007193656    100.07785    1735.6694 
   41600    688.17379     53.50114      2204118          147  0.007193656    73.494981    1702.2394 
   41700    697.88328     52.62998      2204118          147  0.007193656    63.426174    1715.1506 
   41800    700.03035    56.260363      2204118          147  0.007193656    88.901043    1745.7071 
   41900     707.8178    58.030776      2204118          147  0.007193656    98.299666    1773.5368 
   42000     702.8784    58.312852      2204118          147  0.007193656    100.21939    1763.7661 
   42100    683.06879    61.354761      2204118          147  0.007193656    128.33878    1745.0008 
   42200    703.19556    61.764919      2204118          147  0.007193656    123.22208    1787.5194 
   42300    725.45259    60.323544      2204118          147  0.007193656    104.85114    1821.8256 
   42400    700.78233    58.796935      2204118          147  0.007193656    103.82169    1762.4075 
   42500    675.00489    57.073506      2204118          147  0.007193656    101.59225     1699.169 
   42600    688.57019    57.021238      2204118          147  0.007193656     96.29968    1725.9822 
   42700    716.87704    59.351034      2204118          147  0.007193656    103.22077     1799.899 
   42800    713.61294    61.132196      2204118          147  0.007193656    117.65429    1806.6071 
   42900    693.72956    58.974729      2204118          147  0.007193656    108.82771    1750.7213 
   43000    683.86785    57.813996      2204118          147  0.007193656    103.55473     1722.108 
   43100      691.546    61.558023      2204118          147  0.007193656    127.82814    1764.5538 
   43200    715.61126    65.249587      2204118          147  0.007193656    146.44839    1840.1308 
   43300    727.98222    61.562898      2204118          147  0.007193656    115.95194    1838.9134 
   43400    697.08245    53.435388      2204118          147  0.007193656    68.339944     1718.169 
   43500    655.75855    51.332281      2204118          147  0.007193656    68.160699    1620.1859 
   43600    678.81084    55.066506      2204118          147  0.007193656    86.665624    1693.2501 
   43700    744.79844    58.941978      2204118          147  0.007193656    90.371222    1853.1328 
   43800    730.22237    60.766807      2204118          147  0.007193656    107.88593    1836.1494 
   43900    664.36736    60.115631      2204118          147  0.007193656    125.48701    1697.8872 
   44000    667.95805    59.032266      2204118          147  0.007193656    115.85784    1696.7564 
   44100    725.68443     59.94269      2204118          147  0.007193656    102.27329    1819.7965 
   44200     731.9903    61.402946      2204118          147  0.007193656    111.30373    1843.7514 
   44300    693.53506    56.429731      2204118          147  0.007193656     87.76278     1729.196 
   44400    657.51548    55.704415      2204118          147  0.007193656    94.396499    1650.5799 
   44500    681.47349     61.10095      2204118          147  0.007193656    124.36127    1737.2476 
   44600    739.10016    66.853944      2204118          147  0.007193656    146.05827    1895.3333 
   44700    744.12393    64.298065      2204118          147  0.007193656    126.78948    1887.9546 
   44800    680.54868    55.934341      2204118          147  0.007193656    89.964541    1700.6621 
   44900    644.60978    52.603096      2204118          147  0.007193656    80.017346     1605.656 
   45000    701.94407    52.463758      2204118          147  0.007193656    58.381031    1719.7164 
   45100    740.32206    58.737291      2204118          147  0.007193656    89.875081    1842.0421 
   45200    700.32657    64.579717      2204118          147  0.007193656    146.57966    1804.0868 
   45300    686.38144    60.248179      2204118          147  0.007193656    118.33867     1742.841 
   45400    684.01897    60.069064      2204118          147  0.007193656    117.65246    1736.5634 
   45500    703.45501       62.641      2204118          147  0.007193656    127.77398    1792.6854 
   45600     721.6246    66.905526      2204118          147  0.007193656    152.67062    1860.5851 
   45700    722.56503    65.506591      2204118          147  0.007193656    144.07242    1854.2127 
   45800    694.26103     59.27989      2204118          147  0.007193656    110.41298    1753.5644 
   45900    662.98118    57.156274      2204118          147  0.007193656    107.01589    1676.1353 
   46000    692.06693    57.518843      2204118          147  0.007193656    98.991192    1736.9497 
   46100    735.86954    58.221727      2204118          147  0.007193656    87.505631    1829.1346 
   46200     699.9051    62.044696      2204118          147  0.007193656    127.42651    1783.9361 
   46300    668.54401    64.310802      2204118          147  0.007193656    154.26994    1736.5553 
   46400    707.63141    62.358725      2204118          147  0.007193656    125.82187    1800.6178 
   46500    724.14801    62.653077      2204118          147  0.007193656    123.62112     1837.508 
   46600     700.0176    59.801725      2204118          147  0.007193656    111.55879    1768.3347 
   46700    673.29615    58.479297      2204118          147  0.007193656    111.25129    1704.7838 
   46800     693.1408    59.306056      2204118          147  0.007193656     109.1943    1749.6944 
   46900    725.51484    61.555915      2204118          147  0.007193656    113.22645    1830.3483 
   47000    717.56088     60.50516      2204118          147  0.007193656    107.28986    1805.5865 
   47100     676.6171    60.029681      2204118          147  0.007193656    117.94871    1719.3411 
   47200    676.83581    60.564932      2204118          147  0.007193656    121.05219    1722.9623 
   47300    715.70442    62.883707      2204118          147  0.007193656    123.83855    1817.7414 
   47400    733.17883    62.742607      2204118          147  0.007193656    116.40916    1851.6698 
   47500    690.34694    60.577175      2204118          147  0.007193656    115.25055    1749.1383 
   47600    662.81207    60.477584      2204118          147  0.007193656    124.75154    1693.4707 
   47700    704.50251    61.116754      2204118          147  0.007193656    115.41118    1782.8018 
   47800    738.70669    61.804171      2204118          147  0.007193656    109.11846    1857.4623 
   47900    702.33788    60.322484      2204118          147  0.007193656    112.03718    1774.3046 
   48000    666.54518    57.903105      2204118          147  0.007193656    107.91112    1685.4657 
   48100    687.63187    57.616423      2204118          147  0.007193656    99.343216     1726.805 
   48200    727.64246    58.932545      2204118          147  0.007193656    94.766136    1816.9235 
   48300    716.16351     61.08118      2204118          147  0.007193656    115.28498    1810.2744 
   48400    689.56628    58.068369      2204118          147  0.007193656    102.37627    1734.4164 
   48500    671.88481    59.472719      2204118          147  0.007193656     119.8267    1710.0189 
   48600    716.11084    58.020068      2204118          147  0.007193656    92.769759    1787.6345 
   48700    712.96628    62.089812      2204118          147  0.007193656    122.87663     1810.299 
   48800    690.90277    63.892686      2204118          147  0.007193656    142.61246    1777.8157 
   48900    688.09097    64.091933      2204118          147  0.007193656    144.79555    1773.3439 
   49000    706.51925    63.201983      2204118          147  0.007193656    132.30293    1804.4667 
   49100    711.18311    62.309129      2204118          147  0.007193656    125.82664    1809.0286 
   49200    700.69182    59.706446      2204118          147  0.007193656    110.48335    1768.8549 
   49300    691.60266    57.310289      2204118          147  0.007193656    95.384384    1732.2441 
   49400     670.5066    64.152976      2204118          147  0.007193656    152.99546    1739.9258 
   49500    720.05033    65.037619      2204118          147  0.007193656    139.21791    1843.4065 
   49600    730.81775    66.996551      2204118          147  0.007193656    150.03009    1879.7026 
   49700    703.32909    59.705539      2204118          147  0.007193656    105.42531    1770.0387 
   49800    648.55079    59.862526      2204118          147  0.007193656    126.86604    1661.8322 
   49900    690.65945     59.83966      2204118          147  0.007193656    112.08602    1746.7134 
   50000     751.6705    61.781979      2204118          147  0.007193656    105.31788    1884.3439 
   50100    715.22099    63.714295      2204118          147  0.007193656    134.14905    1826.9077 
   50200    670.75067    58.040283      2204118          147  0.007193656    108.45539    1695.9634 
   50300    664.78405    58.099147      2204118          147  0.007193656     112.0949    1685.4813 
   50400    724.21481    58.170288      2204118          147  0.007193656     91.65861    1805.7035 
   50500    734.60052    59.055872      2204118          147  0.007193656    94.830287    1833.4557 
   50600    675.88939    59.616156      2204118          147  0.007193656    118.80451    1718.4746 
   50700    659.09182    61.753326      2204118          147  0.007193656    140.14601    1700.0603 
   50800    728.35732    60.579098      2204118          147  0.007193656    106.18826    1830.0375 
   50900    734.11453    62.914419      2204118          147  0.007193656     122.2284    1859.7036 
   51000    698.61375    56.485787      2204118          147  0.007193656    86.947136    1740.4004 
   51100    653.45154    56.675967      2204118          147  0.007193656    105.38963    1651.9547 
   51200    698.15314    55.854705      2204118          147  0.007193656    82.881892     1735.245 
   51300    739.57533    57.904787      2204118          147  0.007193656    82.341751    1832.7414 
   51400    701.42257    60.756711      2204118          147  0.007193656    115.99585     1776.097 
   51500    664.03815    62.024344      2204118          147  0.007193656    137.92131    1709.5423 
   51600    699.18912    60.865233      2204118          147  0.007193656    115.79943    1770.6145 
   51700    733.14072    62.073762      2204118          147  0.007193656    112.90092    1848.0714 
   51800    706.80207    62.493278      2204118          147  0.007193656    126.14154    1798.9747 
   51900    676.87052    60.275718      2204118          147  0.007193656     121.9519    1723.9441 
   52000    693.59934    56.772975      2204118          147  0.007193656    91.922782    1733.5082 
   52100    708.52932    56.632411      2204118          147  0.007193656    86.244033    1763.1651 
   52200    702.86132    57.084894      2204118          147  0.007193656    90.690642    1754.1969 
   52300    684.77044    59.930083      2204118          147  0.007193656    117.58754     1738.277 
   52400    701.20276     60.77496      2204118          147  0.007193656    117.13579    1776.7167 
   52500    711.26875    63.972605      2204118          147  0.007193656    137.36634     1820.771 
   52600     719.4372    61.112112      2204118          147  0.007193656    113.32254      1816.06 
   52700    685.00917    60.276248      2204118          147  0.007193656    120.58221    1741.8367 
   52800    679.27165    58.342626      2204118          147  0.007193656    107.44874    1715.1239 
   52900     698.7534    60.917528      2204118          147  0.007193656    119.47681    1773.2606 
   53000    733.17944    59.354854      2204118          147  0.007193656    95.237698    1830.4998 
   53100    696.50484     60.21726      2204118          147  0.007193656    115.23805    1763.7001 
   53200    680.27804    55.506465      2204118          147  0.007193656      85.3497    1695.4067 
   53300    689.17184    55.302923      2204118          147  0.007193656    80.097059    1711.2036 
   53400     704.1164     60.51584      2204118          147  0.007193656    112.57208    1779.0488 
   53500    716.67864    63.696798      2204118          147  0.007193656    130.93044    1827.1391 
   53600    712.31396    60.683667      2204118          147  0.007193656    109.25444    1795.1329 
   53700    684.65547    58.415397      2204118          147  0.007193656    102.78604    1723.2034 
   53800    678.66649    58.688804      2204118          147  0.007193656    107.39937    1713.6422 
   53900    710.18691    59.964881      2204118          147  0.007193656    106.37227    1787.2165 
   54000    733.45691    58.035046      2204118          147  0.007193656    84.975806    1820.8946 
   54100    693.66836    55.793543      2204118          147  0.007193656    83.942775    1725.6915 
   54200    666.58676    54.464667      2204118          147  0.007193656    84.896296    1662.5493 
   54300    698.48147    54.508549      2204118          147  0.007193656    74.505266    1727.6455 
   54400    725.54817    57.874067      2204118          147  0.007193656    89.551568    1806.7523 
   54500    705.22207    60.876057      2204118          147  0.007193656    118.69129    1787.7849 
   54600    692.04924     58.84196      2204118          147  0.007193656    107.47262    1745.3893 
   54700    687.96395    59.886997      2204118          147  0.007193656    116.99185    1745.2396 
   54800      713.782    58.299738      2204118          147  0.007193656    95.597651    1784.9506 
   54900    712.52347    57.820681      2204118          147  0.007193656    92.698702     1779.073 
   55000    682.05163    58.350321      2204118          147  0.007193656    107.23076    1721.4854 
   55100    691.44835     57.04432      2204118          147  0.007193656    93.568187    1730.0627 
   55200    708.85683    59.278653      2204118          147  0.007193656    104.23073     1781.927 
   55300     713.7736    58.990257      2204118          147  0.007193656    100.32582    1789.6589 
   55400    694.68977    58.743087      2204118          147  0.007193656    106.06151    1750.2277 
   55500    689.20995    57.477447      2204118          147  0.007193656    99.468163    1730.6649 
   55600     700.9861    56.973024      2204118          147  0.007193656    91.217171    1750.2853 
   55700    696.20767    61.845053      2204118          147  0.007193656    129.57676    1777.3354 
   55800    712.57435    60.425479      2204118          147  0.007193656    113.05465    1799.5494 
   55900    702.37902    58.760928      2204118          147  0.007193656    104.84891    1767.2137 
   56000    681.87239      59.2103      2204118          147  0.007193656    116.91246    1730.7429 
   56100    705.56506    55.856384      2204118          147  0.007193656    84.178482    1754.0839 
   56200    709.52982    56.185097      2204118          147  0.007193656    85.975945     1765.265 
   56300    697.91289     56.34811      2204118          147  0.007193656    91.264633    1743.0592 
   56400    693.49464    55.250375      2204118          147  0.007193656    83.503274    1724.8408 
   56500    687.30229    59.008383      2204118          147  0.007193656    112.49355    1739.1753 
   56600    714.47483    60.067912      2204118          147  0.007193656    110.15742    1801.1501 
   56700    723.65432     57.62675      2204118          147  0.007193656    88.250077    1800.9685 
   56800    675.06495    59.475881      2204118          147  0.007193656    119.69421    1717.4131 
   56900    688.06801    55.919405      2204118          147  0.007193656    87.921902    1716.4159 
   57000    705.73018    58.381307      2204118          147  0.007193656    99.488842    1769.7851 
   57100    715.12514    59.943782      2204118          147  0.007193656    106.60707    1799.1389 
   57200     697.6218    61.519562      2204118          147  0.007193656    125.15935    1776.2649 
   57300    700.04809    56.227564      2204118          147  0.007193656    84.867908     1741.716 
   57400    688.17298    55.631514      2204118          147  0.007193656    85.928312    1714.6708 
   57500     696.4526    55.696849      2204118          147  0.007193656    84.790856    1733.1292 
   57600     713.3848    54.460096      2204118          147  0.007193656    70.077284    1758.4902 
   57700     700.9023    55.699565      2204118          147  0.007193656    84.675241     1743.545 
   57800    691.72729     55.32516      2204118          147  0.007193656    84.751904    1721.9066 
   57900    694.62638    56.432492      2204118          147  0.007193656    92.198096    1736.2142 
   58000    715.19506    55.243867      2204118          147  0.007193656    76.407454    1769.1048 
   58100    702.01636    55.028716      2204118          147  0.007193656    79.726821    1741.2333 
   58200    684.82762    54.855965      2204118          147  0.007193656    84.458599    1705.2834 
   58300    689.73855    56.878532      2204118          147  0.007193656    97.256648    1729.7045 
   58400    717.02489    57.709788      2204118          147  0.007193656    92.834195    1789.8623 
   58500    714.46313    56.893447      2204118          147  0.007193656    86.689428    1777.6545 
   58600    677.06422      58.9004      2204118          147  0.007193656    114.11761    1716.5683 
   58700    683.73903    60.840783      2204118          147  0.007193656    125.61448    1743.8628 
   58800    732.83472    58.966269      2204118          147  0.007193656       95.537    1829.9832 
   58900    721.85118    55.028194      2204118          147  0.007193656    71.821521    1780.2723 
   59000    662.04118     53.90824      2204118          147  0.007193656     85.61126    1652.5059 
   59100    673.20546    53.272417      2204118          147  0.007193656    76.573418    1669.8913 
   59200    725.26157    55.766024      2204118          147  0.007193656    75.346936    1791.8693 
   59300    728.93451    59.242848      2204118          147  0.007193656    99.923671     1825.139 
   59400     695.9727    55.387365      2204118          147  0.007193656    83.563404     1730.766 
   59500    664.11925    53.550575      2204118          147  0.007193656    82.152734    1653.9657 
   59600    694.31748    54.094819      2204118          147  0.007193656    75.357671    1718.6427 
   59700     729.6698    58.044591      2204118          147  0.007193656    91.687195    1818.6428 
   59800    725.25738    55.088061      2204118          147  0.007193656    70.430115    1786.9426 
   59900    668.73792    54.193685      2204118          147  0.007193656    83.011954    1665.7562 
   60000    657.52673    58.503347      2204118          147  0.007193656    117.54002    1673.7501 
   60100    734.57579     60.39137      2204118          147  0.007193656    102.67164    1841.2386 
   60200    750.62832    61.272712      2204118          147  0.007193656    103.76386    1880.3233 
   60300    677.19214    58.513306      2204118          147  0.007193656    110.01732    1712.7707 
   60400    662.42654    52.296735      2204118          147  0.007193656    69.886982    1637.6937 
   60500    699.02566    53.229139      2204118          147  0.007193656       65.006    1719.4342 
   60600    725.46344    58.377436      2204118          147  0.007193656    93.977918    1810.9781 
   60700    714.27712    59.373666      2204118          147  0.007193656    105.86562    1796.3904 
   60800    685.57199    56.910947      2204118          147  0.007193656    98.541688    1721.1282 
   60900     687.5875     53.56761      2204118          147  0.007193656     72.93594    1700.2927 
   61000    700.82718    55.757263      2204118          147  0.007193656    84.410293    1743.1022 
   61100    713.97171    57.383566      2204118          147  0.007193656    90.475241    1780.2772 
   61200    699.16154    58.808753      2204118          147  0.007193656    104.71714    1759.4669 
   61300     680.0566    62.733017      2204118          147  0.007193656    139.98652    1749.5194 
   61400    712.95119       61.263      2204118          147  0.007193656    116.89991    1804.2865 
   61500    717.35852    60.570701      2204118          147  0.007193656    109.88054    1807.6983 
   61600    691.60303    58.605368      2204118          147  0.007193656    103.95861    1740.8192 
   61700    681.04891    56.977672      2204118          147  0.007193656    95.174875    1707.0564 
   61800      693.169     60.18574      2204118          147  0.007193656    115.28026    1755.8471 
   61900    729.86712    58.947897      2204118          147  0.007193656    92.822251    1820.2449 
   62000    705.47514    58.610584      2204118          147  0.007193656    98.620555    1768.3131 
   62100    669.10458    59.706167      2204118          147  0.007193656    118.43437    1702.0465 
   62200    697.63873    59.842594      2204118          147  0.007193656    108.30646    1759.4521 
   62300    730.00461    61.196405      2204118          147  0.007193656    106.37272    1834.1208 
   62400    694.06026    65.966116      2204118          147  0.007193656    155.01915    1797.6954 
   62500    690.44001    63.295501      2204118          147  0.007193656    137.55697     1771.665 
   62600    715.92293    57.384364      2204118          147  0.007193656    87.059132    1781.4792 
   62700    703.00404    54.944804      2204118          147  0.007193656    75.041347    1738.8854 
   62800    660.07758    61.133944      2204118          147  0.007193656    136.99382    1699.2411 
   62900     714.8425    59.087293      2204118          147  0.007193656    101.42204    1793.2849 
   63000    731.48111    60.763835      2204118          147  0.007193656    108.18197    1839.4245 
   63100    688.93093    60.675753      2204118          147  0.007193656    121.80652    1752.3429 
   63200    666.37973    60.690072      2204118          147  0.007193656    129.55273    1706.7157 
   63300    701.98721    62.305587      2204118          147  0.007193656    129.27334    1790.7108 
   63400    741.80495    61.045353      2204118          147  0.007193656    105.93977    1861.6164 
   63500    699.51223      60.0142      2204118          147  0.007193656     113.3355    1768.9153 
   63600    662.75973    58.840882      2204118          147  0.007193656    116.98532    1685.5806 
   63700    678.26164    63.938741      2204118          147  0.007193656    149.93639    1755.2211 
   63800    757.47385    60.985195      2204118          147  0.007193656    99.893354    1892.6546 
   63900    716.19315    60.801592      2204118          147  0.007193656    114.63261    1809.6922 
   64000    658.04516    57.263465      2204118          147  0.007193656    109.16398     1666.601 
   64100    660.34716    59.951941      2204118          147  0.007193656    128.09619    1690.9815 
   64200    739.10215    62.175824      2204118          147  0.007193656    115.34089    1864.6207 
   64300    744.91373    65.097789      2204118          147  0.007193656    135.37941    1898.4138 
   64400    688.19478    58.882607      2204118          147  0.007193656    110.28336    1739.0774 
   64500     655.2712    54.172561      2204118          147  0.007193656    88.159095    1639.0309 
   64600    683.00481    57.137634      2204118          147  0.007193656    100.22014    1716.7308 
   64700    732.37914     63.57997      2204118          147  0.007193656    129.96121    1863.3292 
   64800    732.36316    62.898627      2204118          147  0.007193656    122.46471    1855.7949 
   64900     661.7604    65.079037      2204118          147  0.007193656     163.4263    1729.6564 
   65000     684.1795     59.63157      2204118          147  0.007193656    114.80914       1734.1 
   65100    716.71553    60.793254      2204118          147  0.007193656    111.91263    1808.2086 
   65200    709.11819    64.456123      2204118          147  0.007193656    141.54379    1819.8586 
   65300    697.32132    63.133212      2204118          147  0.007193656    135.26117    1785.6556 
   65400     689.6473    62.592068      2204118          147  0.007193656     134.1971    1766.4289 
   65500    708.70078    60.012419      2204118          147  0.007193656    109.16382    1786.4907 
   65600    702.53836    60.673284      2204118          147  0.007193656    117.43731    1780.1792 
   65700    694.29049    59.997019      2204118          147  0.007193656    115.70891    1758.9301 
   65800    694.74222    59.627353      2204118          147  0.007193656    113.72367     1758.014 
   65900    702.57808    59.173175      2204118          147  0.007193656    107.36684    1770.2028 
   66000    699.96762     60.69401      2204118          147  0.007193656    119.57569    1776.2333 
   66100    707.23814    58.202091      2204118          147  0.007193656    97.749492    1771.6147 
   66200    691.80695    58.488719      2204118          147  0.007193656    105.50063    1742.8439 
   66300    697.29946    56.028899      2204118          147  0.007193656    84.695889    1735.0386 
   66400    695.43835    58.717059      2204118          147  0.007193656    106.06739    1752.0053 
   66500    715.06881    57.749722      2204118          147  0.007193656    92.827221    1785.2258 
   66600    703.63916    57.208457      2204118          147  0.007193656    93.944877    1759.2921 
   66700    687.11212    56.174219      2204118          147  0.007193656    91.666302     1717.898 
   66800     681.9228    60.421782      2204118          147  0.007193656    124.70812    1738.6579 
   66900    718.56449    61.761248      2204118          147  0.007193656    121.03981    1821.7118 
   67000    723.76388    60.872518      2204118          147  0.007193656    112.75023    1825.7279 
   67100    682.60088    59.290705      2204118          147  0.007193656    116.13189    1731.6865 
   67200    681.85592    55.059277      2204118          147  0.007193656    84.952893    1698.7444 
   67300    700.74845    56.383094      2204118          147  0.007193656    88.683908    1747.1895 
   67400    721.71331    57.302879      2204118          147  0.007193656    88.114174    1796.2387 
   67500    703.91009    57.419384      2204118          147  0.007193656    95.354125    1761.3426 
   67600    685.24429    56.349673      2204118          147  0.007193656    94.225861    1716.0368 
   67700    693.73135    55.970214      2204118          147  0.007193656    86.953029    1728.8508 
   67800    694.98155    62.994639      2204118          147  0.007193656    138.27141    1783.1281 
   67900    732.37741    61.015544      2204118          147  0.007193656    109.46569    1842.8296 
   68000     698.1727    62.002094      2204118          147  0.007193656    130.73168    1783.1411 
   68100     687.3275    55.370544      2204118          147  0.007193656    86.175561     1712.917 
   68200    685.65877    54.314299      2204118          147  0.007193656    80.434463    1703.2264 
   68300    709.38214    54.427442      2204118          147  0.007193656     72.92381    1751.8633 
   68400    709.96769    57.324332      2204118          147  0.007193656    93.291988    1773.6174 
   68500     699.6328      58.4229      2204118          147  0.007193656    104.50649    1760.3716 
   68600    695.97246    57.263042      2204118          147  0.007193656    96.207622    1743.4096 
   68700     691.0974    59.689825      2204118          147  0.007193656    116.00127    1751.6651 
   68800    718.25509    57.093529      2204118          147  0.007193656    86.661747    1786.6014 
   68900    702.22971    58.227095      2204118          147  0.007193656    101.23791    1763.2493 
   69000    688.20887    57.455464      2204118          147  0.007193656    100.95776    1729.7852 
   69100    699.13488    55.780686      2204118          147  0.007193656    84.560349     1739.247 
   69200    700.98378    58.199525      2204118          147  0.007193656    101.71032    1760.7729 
   69300    704.41919    59.207521      2204118          147  0.007193656    107.60911    1774.8025 
   69400    704.44665    58.526339      2204118          147  0.007193656    102.98627    1770.2447 
   69500    697.70572    57.565854      2204118          147  0.007193656    99.375286    1750.6795 
   69600    700.59016    55.358585      2204118          147  0.007193656    82.923771    1741.0548 
   69700     697.3838    55.123705      2204118          147  0.007193656    82.555518    1733.0978 
   69800    696.65846    56.055976      2204118          147  0.007193656    89.457491    1738.2831 
   69900    704.15533    56.297075      2204118          147  0.007193656    87.897925    1754.4668 
   70000    702.48256    56.385613      2204118          147  0.007193656    88.066292    1750.6762 
   70100    693.81719    58.020379      2204118          147  0.007193656    102.35465    1744.4556 
   70200    695.90898    60.089482      2204118          147  0.007193656     115.8771    1762.9289 
   70300    708.70816    60.823149      2204118          147  0.007193656    115.86292    1793.2073 
   70400    710.67855    59.792742      2204118          147  0.007193656     107.6664    1789.6742 
   70500    695.46961    57.766069      2204118          147  0.007193656    99.459652    1745.4715 
   70600    687.25191    56.489937      2204118          147  0.007193656    94.460099    1721.0226 
   70700    696.35631    56.867241      2204118          147  0.007193656    94.936515     1743.047 
   70800    704.80827    59.173496      2204118          147  0.007193656    109.34362    1777.4579 
   70900    719.81161    55.082716      2204118          147  0.007193656    72.743436    1776.3671 
   71000     683.8963    56.019104      2204118          147  0.007193656    92.429276    1711.0499 
   71100      682.601    55.498604      2204118          147  0.007193656    88.270607    1703.8255 
   71200    707.16847    57.364624      2204118          147  0.007193656    92.517339    1766.2176 
   71300    719.97321    58.711948      2204118          147  0.007193656    97.263168    1801.2693 
   71400    704.88555    56.051848      2204118          147  0.007193656    82.076481    1750.3737 
   71500    674.75438    55.575174      2204118          147  0.007193656    88.102122    1685.0859 
   71600    674.93623    61.546098      2204118          147  0.007193656    131.88104    1729.2953 
   71700    741.22781    61.503775      2204118          147  0.007193656    108.41076    1862.7214 
   71800    743.73246    55.648655      2204118          147  0.007193656    65.562093    1825.8007 
   71900    654.37394    54.588865      2204118          147  0.007193656    90.384951    1639.1331 
   72000    647.19734    56.712406      2204118          147  0.007193656    107.38084    1639.1437 
   72100    722.32991    63.413549      2204118          147  0.007193656    128.91243    1838.4963 
   72200    764.15883    66.753285      2204118          147  0.007193656     139.3429    1947.9259 
   72300    710.81731    59.976295      2204118          147  0.007193656    109.65717    1791.9934 
   72400    652.04229    53.990528      2204118          147  0.007193656    88.126841    1631.3565 
   72500    668.01914    54.201352      2204118          147  0.007193656    84.751035    1665.7941 
   72600    729.27291    58.773954      2204118          147  0.007193656    96.171028    1822.1873 
   72700    736.18479    61.409101      2204118          147  0.007193656    111.90029    1854.2753 
   72800    683.66606    59.665067      2204118          147  0.007193656    116.64588    1734.7215 
   72900    668.59544    56.952727      2204118          147  0.007193656    102.09795     1684.505 
   73000    695.92746    60.034276      2204118          147  0.007193656    115.93868    1763.0342 
   73100     734.8281    61.993184      2204118          147  0.007193656    117.61551    1856.7796 
   73200    715.90816     59.53421      2204118          147  0.007193656    107.05097     1801.436 
   73300    671.47103    56.223477      2204118          147  0.007193656    98.317611    1687.5305 
   73400    667.23867    58.512274      2204118          147  0.007193656    116.87434    1696.0703 
   73500    726.51206    59.474714      2204118          147  0.007193656    101.76907    1821.2511 
   73600    728.19371    63.392449      2204118          147  0.007193656    130.04672    1853.5088 
   73700    688.46504    61.836242      2204118          147  0.007193656    131.62436    1761.0581 
   73800    672.21223    59.337303      2204118          147  0.007193656    117.88689     1708.854 
   73900    693.20751    61.692601      2204118          147  0.007193656     127.0879    1767.7459 
   74000    731.70381    62.993651      2204118          147  0.007193656    122.77298    1854.5426 
   74100    714.59243    61.794783      2204118          147  0.007193656    120.48926    1811.7603 
   74200    667.53678    61.565447      2204118          147  0.007193656    136.57044    1716.4719 
   74300    687.98177    58.361874      2204118          147  0.007193656    105.94388    1734.2338 
   74400    712.23717    60.436448      2204118          147  0.007193656    113.37724    1799.0739 
   74500    725.19098    57.892023      2204118          147  0.007193656    90.082394    1806.4377 
   74600    689.56738    57.032904      2204118          147  0.007193656    98.111676    1730.1544 
   74700    681.44093    54.052464      2204118          147  0.007193656    79.781362    1692.5907 
   74800      699.617    54.025564      2204118          147  0.007193656    73.058105    1728.8859 
   74900    710.77385    56.827163      2204118          147  0.007193656    88.896691    1771.1301 
   75000    705.98094    58.149739      2204118          147  0.007193656     99.81281    1770.7025 
   75100    699.02932    55.936165      2204118          147  0.007193656    85.492637    1739.9295 
   75200    685.99505     56.97205      2204118          147  0.007193656     98.81776    1722.4056 
   75300    707.02973    54.578483      2204118          147  0.007193656    73.819009    1747.1909 
   75400    705.33518    55.498084      2204118          147  0.007193656    80.331248    1749.6926 
   75500    688.06551    59.217103      2204118          147  0.007193656    113.13938    1741.6275 
   75600     703.8746    59.258575      2204118          147  0.007193656     107.2126    1773.1171 
   75700    715.47819    58.396493      2204118          147  0.007193656    96.741442    1790.1089 
   75800    691.83247    58.920504      2204118          147  0.007193656    109.84581    1747.2494 
   75900    689.30864    57.040467      2204118          147  0.007193656     97.22165     1728.652 
[...]
  381700    687.56902    61.264815      2204118          147  0.007193656    127.57851    1754.8916 
  381800    712.02329    61.380768      2204118          147  0.007193656    118.08557    1803.2761 
  381900    708.79213    62.339994      2204118          147  0.007193656    126.26757    1803.8107 
  382000    693.64413    59.071512      2204118          147  0.007193656    108.45772    1750.1491 
  382100    670.82819    56.234435      2204118          147  0.007193656     96.77143    1684.4629 
  382200    703.18747    55.495269      2204118          147  0.007193656    80.589051    1744.8673 
  382300    739.70455    57.502608      2204118          147  0.007193656    81.814123    1832.5196 
  382400    693.45559    61.999996      2204118          147  0.007193656     132.1577    1773.4028 
  382500    700.35423     57.94055      2204118          147  0.007193656     99.85826    1757.4309 
  382600    702.85925    56.021303      2204118          147  0.007193656     85.99097    1749.4924 
  382700    698.86426    54.753274      2204118          147  0.007193656    78.799159    1732.8454 
  382800    672.20304    54.503664      2204118          147  0.007193656    86.715586     1677.661 
  382900    668.08999    55.651886      2204118          147  0.007193656    95.635448    1676.8462 
  383000    713.28436    58.751695      2204118          147  0.007193656    101.33298    1789.5081 
  383100     724.0287    58.268167      2204118          147  0.007193656    93.128374    1806.7329 
  383200    688.29755    57.341569      2204118          147  0.007193656    97.748014    1726.7853 
  383300    661.74905    62.793062      2204118          147  0.007193656    147.18363    1713.3869 
  383400    702.31853    63.704788      2204118          147  0.007193656    138.87661    1801.0982 
  383500    716.04121    60.412967      2204118          147  0.007193656    109.53727    1804.2372 
  383600    688.27374    60.462678      2204118          147  0.007193656    120.08764    1749.0686 
  383700    687.54267    57.662197      2204118          147  0.007193656    98.092381    1725.3431 
  383800    696.42643    64.020087      2204118          147  0.007193656    141.60012    1789.8765 
  383900    727.91453    68.732206      2204118          147  0.007193656    165.32668     1888.128 
  384000    724.58084    63.087178      2204118          147  0.007193656    126.64132    1841.5526 
  384100    707.04213    55.981261      2204118          147  0.007193656    83.556618    1756.9579 
  384200    691.87431    55.133396      2204118          147  0.007193656     84.77457    1722.2772 
  384300    690.25846     56.45205      2204118          147  0.007193656    95.085028    1728.7633 
  384400    716.88528    59.768568      2204118          147  0.007193656    110.28966    1806.9874 
  384500    748.64958    58.817292      2204118          147  0.007193656    91.821635    1863.6979 
  384600     682.8458    57.322133      2204118          147  0.007193656    104.50035    1720.6346 
  384700    683.00703    57.550695      2204118          147  0.007193656     106.4661     1722.982 
  384800    722.30815    54.265141      2204118          147  0.007193656    67.441665     1776.974 
  384900    702.50027    56.114774      2204118          147  0.007193656    87.641698    1750.2935 
  385000    666.87715    57.278631      2204118          147  0.007193656    107.30538    1685.6457 
  385100    694.25915    58.499499      2204118          147  0.007193656    104.39667    1747.5437 
  385200    730.83653    61.725149      2204118          147  0.007193656    113.25157    1842.9686 
  385300    703.08685    62.420763      2204118          147  0.007193656    127.67899    1791.7191 
  385400    693.24027    58.779096      2204118          147  0.007193656    103.13447      1743.87 
  385500    681.67879    61.928823      2204118          147  0.007193656    130.36908    1743.7413 
  385600    744.13512    63.280688      2204118          147  0.007193656     117.2926    1878.4842 
  385700     739.4154    63.100303      2204118          147  0.007193656    117.69436    1867.7155 
  385800    702.16154    61.531899      2204118          147  0.007193656    119.51055    1781.3606 
  385900    691.70156    58.361876      2204118          147  0.007193656    100.16224     1737.256 
  386000    691.09995    57.567939      2204118          147  0.007193656    95.083251    1730.7532 
  386100    713.11125    59.681702      2204118          147  0.007193656    103.31067    1791.0761 
  386200    741.30226     60.65506      2204118          147  0.007193656    100.57774    1855.0646 
  386300    690.78801     59.09358      2204118          147  0.007193656    108.00304    1742.9347 
  386400    668.58392    60.483928      2204118          147  0.007193656    127.01029    1709.3901 
  386500    710.21626    58.061814      2204118          147  0.007193656    94.825852    1775.7395 
  386600    716.02434    57.086015      2204118          147  0.007193656    86.792564    1781.4526 
  386700    683.37923    57.653334      2204118          147  0.007193656    102.35368    1719.7505 
  386800    672.58358    59.743569      2204118          147  0.007193656    120.89188    1712.7379 
  386900    727.63965    64.878966      2204118          147  0.007193656    139.93658    1862.0873 
  387000    735.20118    59.018313      2204118          147  0.007193656     94.50242    1834.5495 
  387100    679.04943    59.531718      2204118          147  0.007193656    120.76301    1727.9122 
  387200    692.60688    55.545271      2204118          147  0.007193656    85.169947    1724.4064 
  387300    703.34958    59.850229      2204118          147  0.007193656    113.06812      1777.73 
  387400    742.16819    58.372532      2204118          147  0.007193656    87.547919    1844.0843 
  387500    694.09034    54.083997      2204118          147  0.007193656    71.350414    1714.0979 
  387600     658.2535    60.534676      2204118          147  0.007193656    129.77748    1687.7076 
  387700    697.11483    64.655094      2204118          147  0.007193656     145.2369    1795.1426 
  387800    731.18205    61.138606      2204118          147  0.007193656    107.94031    1838.4751 
  387900    694.84111    60.162866      2204118          147  0.007193656    115.86118    1760.3855 
  388000    680.78145    58.972227      2204118          147  0.007193656    113.62144    1724.8699 
  388100    706.14111    58.436064      2204118          147  0.007193656    101.18709    1772.4559 
  388200     736.3788    61.302981      2204118          147  0.007193656    111.76283    1854.5971 
  388300    750.60982    64.986031      2204118          147  0.007193656    134.18237     1910.698 
  388400    699.75493    60.236798      2204118          147  0.007193656    117.59786    1773.7521 
  388500    690.46651    57.235278      2204118          147  0.007193656    100.34433     1734.515 
  388600    704.45539    53.658675      2204118          147  0.007193656    68.571085    1735.8502 
  388700    683.39633    58.774676      2204118          147  0.007193656    113.28137    1730.7186 
  388800    710.34754      62.1584      2204118          147  0.007193656    128.15177    1809.3762 
  388900     742.6702    59.379565      2204118          147  0.007193656    96.821773    1854.5463 
  389000    704.10982    54.540849      2204118          147  0.007193656    75.844426    1742.3056 
  389100    687.40359    54.574813      2204118          147  0.007193656    81.350013    1708.2715 
  389200    692.47167    57.834017      2204118          147  0.007193656    102.33212    1741.2486 
  389300    725.56268     58.64995      2204118          147  0.007193656    95.347481    1812.5825 
  389400    707.37913    59.453775      2204118          147  0.007193656    107.34156    1781.5404 
  389500    661.29844    56.105295      2204118          147  0.007193656    97.822475    1662.9593 
  389600    676.95728    58.222715      2204118          147  0.007193656     108.3276    1710.5252 
  389700    707.55159    58.761687      2204118          147  0.007193656    101.97908    1776.5861 
  389800     710.0688    58.639031      2204118          147  0.007193656    100.71991    1781.2846 
  389900    683.55676    57.923943      2204118          147  0.007193656    104.52684    1722.3438 
  390000    663.77586    58.214466      2204118          147  0.007193656    114.71332    1685.7136 
  390100    726.48838    58.998389      2204118          147  0.007193656    99.013352    1818.4393 
  390200     733.2397    56.650539      2204118          147  0.007193656    80.200858    1815.6056 
  390300     692.6721    54.078158      2204118          147  0.007193656    76.104121     1715.495 
  390400    683.15815    54.906221      2204118          147  0.007193656    84.117816    1700.9914 
  390500    693.59807     60.46581      2204118          147  0.007193656    120.57554    1762.1579 
  390600    722.64641    61.301494      2204118          147  0.007193656    117.20369    1827.5366 
  390700     724.8228    55.676194      2204118          147  0.007193656    76.132311    1791.6162 
  390800    694.21965    56.871475      2204118          147  0.007193656    96.600023    1739.6535 
  390900    689.74561    58.049373      2204118          147  0.007193656    106.07228    1738.5368 
  391000    708.94626     61.22216      2204118          147  0.007193656    121.95231    1799.8602 
  391100    744.57063    60.984892      2204118          147  0.007193656    106.52707    1868.7494 
  391200    703.30924    56.399009      2204118          147  0.007193656    86.552988    1751.1194 
  391300    667.01179    58.878831      2204118          147  0.007193656    117.42902     1696.088 
  391400    703.82402    59.451421      2204118          147  0.007193656    106.71315    1772.4979 
  391500    720.94571    61.472787      2204118          147  0.007193656     115.0037    1821.3115 
  391600    701.09916    60.508767      2204118          147  0.007193656    115.65754    1774.9932 
  391700    668.55158    56.475195      2204118          147  0.007193656    98.674582    1680.9779 
  391800    683.09482     55.94823      2204118          147  0.007193656    90.613492    1707.3372 
  391900    741.16091    59.385049      2204118          147  0.007193656    94.870873    1849.0232 
  392000    706.46769    59.942811      2204118          147  0.007193656    110.63541    1782.6771 
  392100      676.257    60.338129      2204118          147  0.007193656    124.57582     1725.116 
  392200    700.06897    58.555627      2204118          147  0.007193656    102.05524    1758.9527 
  392300    718.83468    64.176113      2204118          147  0.007193656    137.58487    1838.8963 
  392400     747.2879    63.456954      2204118          147  0.007193656    123.13634    1891.7898 
  392500    700.69443    55.307435      2204118          147  0.007193656    81.471636    1739.8494 
  392600     683.0275    53.273856      2204118          147  0.007193656    73.891987    1690.4563 
  392700    694.69199    55.459885      2204118          147  0.007193656    85.680974    1729.8524 
  392800    720.31588    57.959711      2204118          147  0.007193656    93.789737    1798.6068 
  392900    705.07541    60.361169      2204118          147  0.007193656    116.61609    1785.3626 
  393000    673.84583    55.223654      2204118          147  0.007193656    89.110981    1683.9445 
  393100    659.54875    55.575944      2204118          147  0.007193656    96.521091    1657.5168 
  393200    704.83083    60.427474      2204118          147  0.007193656    114.99906    1783.1667 
  393300    700.45839    64.186097      2204118          147  0.007193656    144.28115    1802.1003 
  393400    710.93615    60.925144      2204118          147  0.007193656    116.40463    1799.0221 
  393500    687.87769     59.63354      2204118          147  0.007193656    115.51544     1743.559 
  393600    674.50377    57.969872      2204118          147  0.007193656    107.04958    1703.4403 
  393700    712.12057    59.874295      2204118          147  0.007193656     106.6071    1792.0278 
  393800    733.21723    63.291743      2204118          147  0.007193656    123.68145     1859.033 
  393900     703.7082    63.007752      2204118          147  0.007193656    133.29496    1798.8056 
  394000    704.50338     57.41278      2204118          147  0.007193656    92.015299     1759.408 
  394100    696.93494    56.397249      2204118          147  0.007193656    87.419817    1736.8998 
  394200    688.53258    59.307926      2204118          147  0.007193656    111.62249    1741.2161 
  394300     726.2028    61.384207      2204118          147  0.007193656    112.82866    1831.5787 
  394400    751.18334      64.0744      2204118          147  0.007193656    123.78105    1901.6541 
  394500    703.34439    60.761328      2204118          147  0.007193656    116.84736     1781.497 
  394600    699.05069    57.789833      2204118          147  0.007193656     97.52159     1752.009 
  394700    696.77187    55.990508      2204118          147  0.007193656    86.284027     1735.378 
  394800    694.50073    55.841228      2204118          147  0.007193656    87.258109    1730.9769 
  394900    707.41572    56.751923      2204118          147  0.007193656    90.501972    1764.7874 
  395000    726.13857    55.532452      2204118          147  0.007193656    74.767363    1793.3654 
  395100    684.82201    55.775034      2204118          147  0.007193656    91.262362    1712.0739 
  395200    665.90009    56.331148      2204118          147  0.007193656    101.19971    1677.2275 
  395300    712.51727    57.120126      2204118          147  0.007193656    90.080291    1776.4399 
  395400    715.96824    58.285588      2204118          147  0.007193656    97.721896    1792.2492 
  395500    693.92151    59.616778      2204118          147  0.007193656    114.74492    1757.0928 
  395600    691.61113    59.572793      2204118          147  0.007193656    114.86084    1751.7406 
  395700    727.40709    57.800211      2204118          147  0.007193656    87.546936    1809.1472 
  395800    722.57444    63.064888      2204118          147  0.007193656    127.98125    1838.1438 
  395900    690.60246    59.960725      2204118          147  0.007193656    116.23194    1750.7244 
  396000    676.17604    57.206779      2204118          147  0.007193656    101.86319    1702.2117 
  396100    709.26422    55.984976      2204118          147  0.007193656    80.760558     1759.421 
  396200    741.32979    58.983361      2204118          147  0.007193656    90.749784    1845.3018 
  396300    702.96249    61.719854      2204118          147  0.007193656    124.06833    1787.8141 
  396400    667.19927    58.890822      2204118          147  0.007193656    114.64136     1693.744 
  396500    686.76356    62.433368      2204118          147  0.007193656    132.89446    1758.3012 
  396600    719.92844    64.407694      2204118          147  0.007193656    135.36945    1839.2696 
  396700    719.77186    61.325203      2204118          147  0.007193656    113.78542     1817.315 
  396800    693.04675        56.97      2204118          147  0.007193656    92.264327    1732.5419 
  396900    686.15492    56.326995      2204118          147  0.007193656    90.145311    1714.1115 
  397000    694.57811    58.013275      2204118          147  0.007193656    98.915243    1742.8171 
  397100     705.7754    59.766532      2204118          147  0.007193656     107.3629    1777.7661 
  397200    712.09424    59.659299      2204118          147  0.007193656    104.08866    1789.4471 
  397300    677.76809    59.272759      2204118          147  0.007193656    113.87705    1717.9936 
  397400    672.25903     55.71421      2204118          147  0.007193656    90.209373    1681.2873 
  397500    716.38807    55.055948      2204118          147  0.007193656    70.341849    1765.8628 
  397600    714.69265    58.300426      2204118          147  0.007193656    94.502888    1786.0111 
  397700    682.08505    60.333961      2204118          147  0.007193656     120.9045    1735.2383 
  397800     661.2356    57.118308      2204118          147  0.007193656    104.87293     1669.861 
  397900    681.87444    56.648057      2204118          147  0.007193656    95.040393    1708.8757 
  398000    725.60542    56.844683      2204118          147  0.007193656    81.669581    1799.0058 
  398100    697.84823    60.244415      2204118          147  0.007193656    117.91532    1769.5568 
  398200    686.38535    57.217421      2204118          147  0.007193656    99.378013    1723.8896 
  398300    680.75112    55.744844      2204118          147  0.007193656    90.341048    1701.5177 
  398400    691.74965    61.346913      2204118          147  0.007193656    128.18753    1765.3951 
  398500     731.6415    61.901741      2204118          147  0.007193656    117.80538    1849.4275 
  398600    707.68861    60.662472      2204118          147  0.007193656    117.53436    1792.4657 
  398700     674.2166    61.108352      2204118          147  0.007193656     133.0429    1728.7539 
  398800     697.2715    59.169494      2204118          147  0.007193656    111.52714    1761.8036 
  398900    713.36526     56.88762      2204118          147  0.007193656    90.498775    1778.8654 
  399000    696.31009     58.08925      2204118          147  0.007193656     106.7407    1754.7418 
  399100    703.22205    55.562491      2204118          147  0.007193656    85.958278    1750.3183 
  399200    703.88642    53.514623      2204118          147  0.007193656    70.570071    1736.5025 
  399300    683.10618     54.57776      2204118          147  0.007193656    84.246225    1700.9968 
  399400    662.36887      59.4969      2204118          147  0.007193656    126.42974       1694.1 
  399500    724.78404    59.395782      2204118          147  0.007193656    101.09098    1816.4832 
  399600    718.80002    60.508778      2204118          147  0.007193656    111.41235    1812.6418 
  399700    690.16783    56.895466      2204118          147  0.007193656    94.634108    1728.0979 
  399800    677.68585    57.249255      2204118          147  0.007193656    101.78872    1705.7106 
  399900    703.55237    61.167626      2204118          147  0.007193656    120.81556    1785.9574 
  400000    737.81663    62.559434      2204118          147  0.007193656    118.03317    1864.2704 
  400100    715.73531    62.411168      2204118          147  0.007193656    125.30082    1819.2768 
Loop time of 25.2591 on 1 procs for 400000 steps with 795 atoms

Performance: 342.055 ns/day, 0.070 hours/ns, 15835.890 timesteps/s
96.2% CPU use with 1 MPI tasks x no OpenMP threads

MPI task timing breakdown:
Section |  min time  |  avg time  |  max time  |%varavg| %total
---------------------------------------------------------------
Pair    | 11.659     | 11.659     | 11.659     |   0.0 | 46.16
Neigh   | 4.1566     | 4.1566     | 4.1566     |   0.0 | 16.46
Comm    | 0.87913    | 0.87913    | 0.87913    |   0.0 |  3.48
Output  | 1.662      | 1.662      | 1.662      |   0.0 |  6.58
Modify  | 6.222      | 6.222      | 6.222      |   0.0 | 24.63
Other   |            | 0.6807     |            |       |  2.69

Nlocal:            795 ave         795 max         795 min
Histogram: 1 0 0 0 0 0 0 0 0 0
Nghost:            136 ave         136 max         136 min
Histogram: 1 0 0 0 0 0 0 0 0 0
Neighs:           1616 ave        1616 max        1616 min
Histogram: 1 0 0 0 0 0 0 0 0 0

Total # of neighbors = 1616
Ave neighs/atom = 2.0327044
Neighbor list builds = 13363
Dangerous builds = 16

write_data graphene_single_layer_LJ_795C_after_temp_700K.data
System init for write_data ...
  generated 0 of 0 mixed pair_coeff terms from geometric mixing rule
Total wall time: 0:00:25
